# vtk DataFile Version 3.0
fluid_state
ASCII
DATASET RECTILINEAR_GRID
DIMENSIONS 100 40 1
X_COORDINATES 100 float
0.5 1.5 2.5 3.5 4.5 5.5 6.5 7.5 8.5 9.5 10.5 11.5 12.5 13.5 14.5 15.5 16.5 17.5 18.5 19.5 20.5 21.5 22.5 23.5 24.5 25.5 26.5 27.5 28.5 29.5 30.5 31.5 32.5 33.5 34.5 35.5 36.5 37.5 38.5 39.5 40.5 41.5 42.5 43.5 44.5 45.5 46.5 47.5 48.5 49.5 50.5 51.5 52.5 53.5 54.5 55.5 56.5 57.5 58.5 59.5 60.5 61.5 62.5 63.5 64.5 65.5 66.5 67.5 68.5 69.5 70.5 71.5 72.5 73.5 74.5 75.5 76.5 77.5 78.5 79.5 80.5 81.5 82.5 83.5 84.5 85.5 86.5 87.5 88.5 89.5 90.5 91.5 92.5 93.5 94.5 95.5 96.5 97.5 98.5 99.5 
Y_COORDINATES 40 float
0.5 1.5 2.5 3.5 4.5 5.5 6.5 7.5 8.5 9.5 10.5 11.5 12.5 13.5 14.5 15.5 16.5 17.5 18.5 19.5 20.5 21.5 22.5 23.5 24.5 25.5 26.5 27.5 28.5 29.5 30.5 31.5 32.5 33.5 34.5 35.5 36.5 37.5 38.5 39.5 
Z_COORDINATES 1 float
0
POINT_DATA 4000
SCALARS density_difference float 1
LOOKUP_TABLE default
-0.00242183
-0.0026339
-0.00283953
-0.00303925
-0.00322138
-0.00339075
-0.00355597
-0.00370549
-0.00383709
-0.00396111
-0.00407264
-0.00416685
-0.00424872
-0.00431757
-0.00437067
-0.0044104
-0.00443638
-0.00444437
-0.00443852
-0.00442061
-0.00438304
-0.0043297
-0.00426415
-0.00418038
-0.0040814
-0.00396914
-0.00383976
-0.00369748
-0.00354415
-0.00337693
-0.00319543
-0.00300532
-0.00280882
-0.00259698
-0.00237402
-0.0021504
-0.00191639
-0.00166871
-0.00141978
-0.00116776
-0.000905639
-0.000640018
-0.000375485
-0.000108067
0.000161245
0.000427748
0.000691071
0.000951686
0.00120713
0.00145555
0.00169657
0.00192916
0.00215175
0.00236348
0.00256358
0.00275113
0.00292527
0.00308541
0.00323094
0.00336129
0.00347606
0.00357487
0.00365747
0.00372361
0.00377322
0.00380617
0.00382253
0.0038223
0.00380566
0.00377268
0.00372369
0.00365881
0.00357846
0.00348281
0.00337242
0.0032475
0.00310867
0.00295627
0.00279103
0.00261331
0.00242398
0.00222357
0.00201302
0.00179291
0.00156435
0.00132805
0.00108514
0.000836526
0.000583318
0.000326352
6.7186e-05
-0.000193279
-0.000454458
-0.000714745
-0.000972071
-0.00122703
-0.00147909
-0.00172416
-0.00196197
-0.0021961
-0.00241144
-0.00262661
-0.0028367
-0.00303028
-0.00321029
-0.00338801
-0.0035514
-0.00369377
-0.00383048
-0.00395805
-0.00406467
-0.004158
-0.0042424
-0.00431173
-0.00436329
-0.00440186
-0.00442847
-0.00443752
-0.00443113
-0.00441117
-0.00437421
-0.00432242
-0.00425655
-0.00417184
-0.00407255
-0.00396319
-0.00383496
-0.00369082
-0.003538
-0.00337303
-0.00319397
-0.003001
-0.00280152
-0.00259597
-0.00237321
-0.00214186
-0.00191066
-0.00166799
-0.00141375
-0.00115935
-0.000901707
-0.000636117
-0.000368479
-0.000102345
0.000164983
0.000432255
0.00069598
0.000955252
0.00121017
0.0014587
0.00169937
0.00193129
0.00215376
0.00236529
0.00256522
0.00275252
0.00292672
0.00308675
0.00323237
0.00336271
0.00347771
0.00357657
0.00365946
0.00372572
0.00377567
0.00380877
0.00382553
0.00382545
0.0038092
0.00377639
0.00372779
0.00366305
0.00358305
0.00348756
0.00337749
0.00325267
0.00311414
0.00296186
0.00279686
0.00261922
0.00243015
0.00222983
0.00201945
0.00179941
0.00157102
0.0013348
0.00109204
0.000843403
0.000590268
0.000333556
7.44339e-05
-0.000186445
-0.000447301
-0.000706845
-0.000964972
-0.0012208
-0.00147102
-0.00171552
-0.0019565
-0.00219004
-0.00240275
-0.00262171
-0.00282641
-0.0030183
-0.00320701
-0.00338261
-0.00353768
-0.00368733
-0.00382859
-0.00394751
-0.00405504
-0.00415466
-0.00423584
-0.00430228
-0.00435767
-0.00439703
-0.00441959
-0.0044311
-0.00442675
-0.00440251
-0.0043678
-0.00431738
-0.00424717
-0.00416623
-0.00406847
-0.00395305
-0.00382792
-0.00368846
-0.00353212
-0.00336326
-0.00318807
-0.00300053
-0.00279398
-0.00258417
-0.00237063
-0.00213848
-0.0018982
-0.00165909
-0.0014095
-0.00114983
-0.000889876
-0.000627888
-0.000359928
-9.12177e-05
0.000175651
0.000441809
0.000706396
0.000966161
0.00122075
0.00146918
0.00171027
0.00194222
0.0021648
0.00237643
0.00257666
0.00276408
0.00293859
0.00309881
0.00324481
0.00337536
0.00349076
0.00358987
0.00367317
0.00373968
0.00379004
0.00382338
0.0038405
0.00384063
0.0038247
0.00379205
0.00374368
0.00367905
0.00359922
0.00350376
0.00339375
0.00326892
0.0031304
0.002978
0.00281289
0.00263514
0.00244588
0.00224531
0.00203468
0.00181443
0.00158569
0.00134913
0.00110601
0.000857065
0.000603524
0.0003464
8.6744e-05
-0.000174356
-0.000435395
-0.00069577
-0.000954655
-0.00120975
-0.00146018
-0.00170708
-0.00194774
-0.00217842
-0.00239437
-0.00260954
-0.00281208
-0.00301148
-0.00320008
-0.00336683
-0.0035273
-0.00368419
-0.00381679
-0.00393414
-0.00404913
-0.00414706
-0.00422593
-0.00429315
-0.00434926
-0.00439065
-0.00441285
-0.00442257
-0.00441887
-0.00439764
-0.00436174
-0.00430945
-0.00423968
-0.00415901
-0.0040627
-0.00394484
-0.00381811
-0.00367977
-0.00352485
-0.00335643
-0.00317494
-0.0029894
-0.00279062
-0.00257304
-0.00235476
-0.00213169
-0.00189054
-0.00164368
-0.00139674
-0.00114058
-0.000876518
-0.000612462
-0.00034663
-7.75072e-05
0.00019156
0.000457771
0.000722029
0.000982692
0.00123805
0.00148652
0.00172799
0.00196051
0.00218348
0.00239541
0.00259611
0.00278394
0.00295888
0.00311948
0.00326595
0.00339688
0.00351273
0.00361221
0.00369595
0.00376279
0.00381354
0.00384718
0.00386462
0.00386498
0.0038493
0.00381679
0.00376856
0.003704
0.0036242
0.00352869
0.00341861
0.00329366
0.00315491
0.00300227
0.00283688
0.00265879
0.00246908
0.0022681
0.00205697
0.00183618
0.00160684
0.00136971
0.00112592
0.00087635
0.000622141
0.000364235
0.000103906
-0.000157618
-0.000419614
-0.000681001
-0.000939819
-0.00119524
-0.00144777
-0.00169493
-0.00193369
-0.00216652
-0.00237891
-0.00259274
-0.00280238
-0.00300145
-0.00318069
-0.00335351
-0.00352355
-0.00366831
-0.00379726
-0.00392914
-0.0040404
-0.00412907
-0.00421505
-0.00428671
-0.00433833
-0.00437794
-0.00440643
-0.00441558
-0.00440788
-0.00439223
-0.00435362
-0.00429989
-0.0042363
-0.00414785
-0.00404953
-0.00394077
-0.00380905
-0.00366409
-0.0035108
-0.0033494
-0.00316558
-0.00296838
-0.00277671
-0.00256811
-0.00233821
-0.0021117
-0.00188045
-0.0016316
-0.00137749
-0.0011239
-0.000862367
-0.000594705
-0.000327042
-5.91348e-05
0.000210591
0.000478606
0.000743361
0.0010042
0.00126045
0.00150976
0.00175172
0.00198478
0.00220845
0.00242097
0.00262223
0.00281062
0.00298615
0.00314729
0.0032943
0.00342576
0.00354212
0.00364208
0.00372629
0.00379355
0.0038447
0.00387867
0.00389642
0.00389703
0.00388154
0.00384917
0.00380103
0.00373646
0.00365661
0.00356098
0.00345072
0.00332548
0.00318641
0.0030334
0.00286754
0.00268889
0.00249862
0.00229703
0.00208519
0.00186361
0.00163352
0.00139561
0.00115091
0.000900425
0.000645344
0.000386608
0.000125372
-0.00013721
-0.000400115
-0.000661922
-0.000921623
-0.0011787
-0.0014315
-0.00167781
-0.00191874
-0.0021542
-0.00236024
-0.00257911
-0.00278899
-0.00298084
-0.00316437
-0.00334643
-0.00350596
-0.00364497
-0.00378961
-0.00391892
-0.00401834
-0.00411585
-0.00420437
-0.00427303
-0.00432745
-0.00436453
-0.00439491
-0.0044088
-0.00440129
-0.00438179
-0.00434518
-0.00429308
-0.00422849
-0.0041403
-0.00403606
-0.00392835
-0.00379786
-0.00365387
-0.00349559
-0.00332615
-0.00315543
-0.0029593
-0.0027504
-0.00254918
-0.00233016
-0.00209269
-0.00185721
-0.00161657
-0.0013616
-0.00110206
-0.000841465
-0.000575565
-0.000305294
-3.54837e-05
0.000234004
0.00050278
0.000769146
0.00103079
0.00128764
0.00153795
0.00178086
0.00201464
0.00223908
0.00245242
0.00265442
0.00284351
0.00301975
0.00318157
0.00332923
0.0034613
0.00357826
0.00367876
0.00376347
0.00383121
0.00388277
0.0039171
0.00393515
0.003936
0.00392068
0.00388841
0.00384029
0.00377568
0.00369569
0.00359987
0.0034893
0.0033637
0.00322419
0.00307066
0.00290417
0.00272487
0.00253386
0.00233144
0.0021187
0.00189626
0.00166516
0.00142618
0.00118046
0.000928949
0.000672703
0.000412899
0.000150593
-0.00011314
-0.000376994
-0.000639714
-0.000900803
-0.00115869
-0.0014115
-0.00165937
-0.00190233
-0.00213622
-0.0023438
-0.00256278
-0.0027666
-0.00296251
-0.00315529
-0.00332674
-0.00347793
-0.00363664
-0.00378165
-0.0038878
-0.00399923
-0.00411191
-0.00418632
-0.00425174
-0.00431458
-0.00435836
-0.00438199
-0.00439363
-0.00439809
-0.00437182
-0.00433912
-0.00428824
-0.00421016
-0.00413675
-0.00403219
-0.00390683
-0.00378077
-0.0036419
-0.00348625
-0.00330285
-0.00312615
-0.00295052
-0.00273694
-0.00251822
-0.00230967
-0.00208043
-0.00183461
-0.00159143
-0.00134249
-0.00108155
-0.000816604
-0.000551079
-0.000281298
-9.33031e-06
0.000261755
0.000530979
0.000798376
0.00106147
0.00131936
0.00157056
0.00181453
0.00204938
0.00227474
0.00248897
0.00269188
0.00288185
0.00305888
0.00322149
0.00336989
0.00350269
0.00362028
0.00372141
0.00380667
0.00387492
0.0039269
0.00396163
0.00397996
0.00398106
0.00396587
0.00393369
0.00388552
0.00382083
0.00374063
0.00364453
0.00353356
0.00340754
0.00326744
0.00311327
0.00294603
0.00276597
0.00257402
0.00237063
0.00215687
0.00193336
0.00170106
0.00146088
0.00121396
0.000961208
0.000703646
0.000442552
0.000178997
-8.58726e-05
-0.00035099
-0.000615128
-0.000877145
-0.00113556
-0.00139002
-0.00163957
-0.00188163
-0.00211551
-0.00232414
-0.00254018
-0.00274722
-0.00294879
-0.00313367
-0.00329931
-0.00346717
-0.00362598
-0.00374643
-0.0038665
-0.00399759
-0.00408651
-0.00416178
-0.00424094
-0.00429558
-0.00434792
-0.00437206
-0.00437887
-0.00438812
-0.00436933
-0.00433546
-0.00428361
-0.00420091
-0.0041198
-0.00402617
-0.0038971
-0.0037667
-0.0036124
-0.00346236
-0.00330255
-0.00309952
-0.00291075
-0.0027258
-0.00250412
-0.00227637
-0.00205537
-0.0018182
-0.00156717
-0.00131472
-0.0010579
-0.000792386
-0.000523231
-0.000252905
1.90469e-05
0.000291937
0.000562832
0.000831061
0.00109532
0.00135463
0.00160703
0.00185207
0.00208809
0.00231456
0.00252984
0.00273374
0.00292471
0.00310265
0.00326616
0.00341537
0.00354897
0.00366725
0.00376908
0.00385491
0.00392372
0.00397613
0.00401127
0.00402988
0.00403123
0.00401613
0.00398402
0.00393576
0.00387095
0.00379045
0.00369403
0.00358259
0.00345603
0.00331524
0.00316036
0.00299228
0.00281127
0.00261827
0.00241384
0.00219887
0.00197407
0.00174049
0.00149904
0.00125065
0.000996441
0.000737558
0.000475071
0.000209999
-5.62212e-05
-0.000322621
-0.000588065
-0.000851243
-0.00111097
-0.00136672
-0.00161659
-0.00185936
-0.00209574
-0.00230076
-0.00251892
-0.00273037
-0.00292663
-0.00310627
-0.00328525
-0.00345569
-0.00358895
-0.00371849
-0.00387042
-0.00397225
-0.00404204
-0.0041527
-0.00423393
-0.00427718
-0.00432177
-0.0043579
-0.00438653
-0.00437225
-0.00436497
-0.00432619
-0.00427393
-0.00422042
-0.00409874
-0.00400154
-0.00389246
-0.003755
-0.00359695
-0.00342089
-0.0032768
-0.00309725
-0.00287794
-0.00268643
-0.00248822
-0.00225626
-0.00202307
-0.00179137
-0.00154471
-0.0012877
-0.00102887
-0.000764772
-0.000494638
-0.000222154
5.07473e-05
0.000324447
0.000596869
0.000866551
0.00113201
0.00139255
0.00164634
0.00189264
0.00212985
0.00235749
0.00257398
0.00277895
0.00297098
0.00314991
0.00331442
0.00346448
0.00359895
0.00371798
0.00382055
0.00390697
0.00397638
0.00402924
0.00406481
0.00408369
0.00408528
0.00407026
0.0040382
0.00398982
0.00392484
0.00384401
0.00374723
0.00363524
0.00350807
0.00336654
0.00321086
0.0030418
0.00285977
0.00266566
0.00246003
0.00224374
0.0020176
0.00178261
0.00153968
0.00128976
0.00103406
0.000773643
0.000509603
0.000243043
-2.46776e-05
-0.000292535
-0.000559246
-0.000823806
-0.00108501
-0.00134153
-0.00159215
-0.00183695
-0.00207407
-0.00227849
-0.00249848
-0.00270672
-0.00290165
-0.00308983
-0.00326773
-0.00341983
-0.00356335
-0.00372056
-0.00383755
-0.00391683
-0.00404519
-0.00414732
-0.0041905
-0.00426538
-0.00430053
-0.00433907
-0.00438841
-0.00437095
-0.0043627
-0.00432353
-0.00426318
-0.00422216
-0.0041121
-0.00398294
-0.00386406
-0.00371458
-0.00360135
-0.0034192
-0.00321114
-0.00306435
-0.00287853
-0.00265137
-0.00244556
-0.00223586
-0.00200051
-0.00175815
-0.00151506
-0.0012618
-0.000999304
-0.000733214
-0.00046393
-0.000190456
8.45352e-05
0.000359222
0.000632574
0.000903768
0.00117072
0.00143245
0.00168755
0.0019352
0.00217374
0.00240256
0.0026203
0.00282642
0.0030196
0.00319954
0.00336509
0.00351607
0.00365145
0.00377126
0.00387461
0.00396165
0.00403168
0.00408499
0.00412101
0.00414014
0.00414199
0.00412703
0.00409501
0.00404648
0.00398132
0.00390013
0.00380292
0.00369033
0.00356254
0.00342021
0.00326363
0.00309356
0.00291048
0.00271516
0.0025082
0.00229056
0.00206305
0.00182652
0.00158198
0.00133058
0.00107333
0.000811193
0.000545541
0.000277567
8.28015e-06
-0.0002612
-0.000529286
-0.000795095
-0.00105758
-0.00131536
-0.0015673
-0.00181275
-0.00204997
-0.00225574
-0.00247543
-0.00268254
-0.0028809
-0.00306957
-0.0032377
-0.00339321
-0.00355595
-0.00369106
-0.0037795
-0.00391371
-0.00405152
-0.00408098
-0.00415149
-0.00426689
-0.00431218
-0.00433342
-0.00432014
-0.00438203
-0.00437544
-0.00435651
-0.0042926
-0.0041468
-0.00411537
-0.00399375
-0.00386036
-0.00368958
-0.00353523
-0.00341642
-0.00320415
-0.0030031
-0.00284233
-0.00263707
-0.00241321
-0.00219873
-0.00197252
-0.00173067
-0.00148369
-0.00123063
-0.000968952
-0.000701686
-0.000431035
-0.000156894
0.000119019
0.000395031
0.000669732
0.000942037
0.00121028
0.00147341
0.00172986
0.00197871
0.0022186
0.0024487
0.00266766
0.00287492
0.00306931
0.00325031
0.00341691
0.00356883
0.00370517
0.00382577
0.00392991
0.0040176
0.00408826
0.00414203
0.0041785
0.0041979
0.00419998
0.0041851
0.0041531
0.00410441
0.00403905
0.00395748
0.00385983
0.00374664
0.00361817
0.00347501
0.00331752
0.00314643
0.00296222
0.00276564
0.0025574
0.00233837
0.00210936
0.00187131
0.00162525
0.00137223
0.0011133
0.000849598
0.000582384
0.000312724
4.18579e-05
-0.000228975
-0.000498588
-0.000765901
-0.00102948
-0.00128842
-0.00154177
-0.00178784
-0.00202571
-0.00223158
-0.00245133
-0.00266053
-0.00285831
-0.00304176
-0.00321347
-0.00337824
-0.00352303
-0.00363967
-0.00377804
-0.00391727
-0.00395234
-0.00403518
-0.0042083
-0.00422981
-0.00427898
-0.00430484
-0.00424031
-0.00393619
-0.00369734
-0.00364661
-0.00385594
-0.00409558
-0.00403545
-0.00395987
-0.00385705
-0.00374807
-0.00347162
-0.0033169
-0.00321178
-0.00298929
-0.0027797
-0.00260214
-0.00239277
-0.00216384
-0.00193673
-0.00170209
-0.00145338
-0.00119747
-0.00093715
-0.000670001
-0.00039743
-0.000122445
0.000153882
0.000431076
0.000707197
0.00098056
0.00124996
0.00151436
0.00177218
0.00202224
0.0022634
0.00249472
0.00271496
0.00292335
0.0031189
0.00330097
0.00346866
0.00362151
0.0037588
0.0038802
0.00398514
0.00407348
0.00414478
0.00419901
0.00423592
0.0042556
0.00425793
0.0042431
0.00421112
0.00416229
0.00409671
0.00401476
0.00391666
0.00380289
0.00367372
0.00352972
0.00337135
0.00319921
0.00301385
0.00281606
0.00260655
0.00238612
0.00215561
0.0019161
0.00166854
0.00141387
0.00115331
0.000888136
0.000619331
0.000347994
7.56454e-05
-0.000196523
-0.000467645
-0.000736384
-0.00100115
-0.0012612
-0.00151556
-0.00176269
-0.00200159
-0.00220792
-0.00242722
-0.00263717
-0.00283502
-0.00301735
-0.00318914
-0.00335002
-0.00348864
-0.00361984
-0.00376206
-0.00384118
-0.00390547
-0.00408581
-0.00413963
-0.00411481
-0.00391996
-0.00349114
-0.00298312
-0.0025988
-0.00241432
-0.00230927
-0.00250705
-0.00283464
-0.00317195
-0.00363106
-0.00376609
-0.00365309
-0.00352103
-0.00326886
-0.00312283
-0.00296593
-0.00275773
-0.00255951
-0.00235391
-0.00213346
-0.00190601
-0.00166904
-0.00142122
-0.00116642
-0.000905159
-0.000637031
-0.000364392
-8.88873e-05
0.000188778
0.000466876
0.000743698
0.00101823
0.00128898
0.00155437
0.00181331
0.00206467
0.00230707
0.00253946
0.00276093
0.00297047
0.00316713
0.00335022
0.00351898
0.00367275
0.00381095
0.00393316
0.00403889
0.00412786
0.00419977
0.00425449
0.00429182
0.00431179
0.00431434
0.0042996
0.00426763
0.00421866
0.00415286
0.00407057
0.00397203
0.00385766
0.00372783
0.00358306
0.00342379
0.00325065
0.00306422
0.00286527
0.00265447
0.00243271
0.00220086
0.00195991
0.00171079
0.00145468
0.00119267
0.000925879
0.000655474
0.000382828
0.000109037
-0.000164788
-0.00043721
-0.000706927
-0.000973167
-0.00123459
-0.00148947
-0.00173737
-0.00197769
-0.00218433
-0.00240482
-0.0026138
-0.0028099
-0.00299375
-0.00316455
-0.00331949
-0.00346117
-0.00359462
-0.00370164
-0.00379139
-0.0039553
-0.00400871
-0.00391955
-0.00361642
-0.00286567
-0.00222017
-0.0018384
-0.00172936
-0.00161451
-0.00157987
-0.00163949
-0.00163954
-0.00193439
-0.00256979
-0.00322806
-0.00343267
-0.00346025
-0.00330167
-0.00305432
-0.00290598
-0.00272945
-0.00252064
-0.00231551
-0.00210386
-0.00187427
-0.00163497
-0.00139059
-0.00113662
-0.000873286
-0.000604939
-0.000332699
-5.63734e-05
0.000222326
0.000501062
0.000778721
0.00105419
0.00132598
0.00159243
0.00185245
0.00210483
0.00234839
0.00258189
0.00280444
0.00301502
0.00321278
0.00339684
0.00356657
0.00372125
0.00386033
0.0039833
0.00408978
0.00417938
0.00425188
0.00430706
0.00434481
0.00436505
0.00436782
0.00435317
0.00432121
0.00427213
0.00420613
0.00412351
0.00402455
0.00390965
0.00377919
0.00363368
0.00347357
0.00329951
0.00311209
0.00291204
0.00270005
0.00247709
0.00224397
0.00200166
0.00175116
0.00149372
0.0012303
0.000962047
0.000690268
0.000416317
0.000141103
-0.000134062
-0.000407672
-0.000678589
-0.000945999
-0.00120835
-0.00146429
-0.00171303
-0.00195351
-0.00216166
-0.00238336
-0.00259138
-0.00278562
-0.00297077
-0.00314124
-0.00328907
-0.00342663
-0.00356306
-0.00366488
-0.00375892
-0.00388011
-0.00389695
-0.00350224
-0.00258758
-0.00194081
-0.0017348
-0.00175508
-0.00168454
-0.00165187
-0.00162858
-0.00156123
-0.00154854
-0.00147474
-0.00162574
-0.00218432
-0.00300857
-0.00330732
-0.00321512
-0.00303222
-0.00286284
-0.00268166
-0.00248145
-0.00228347
-0.00207122
-0.00184203
-0.00160585
-0.0013616
-0.00110612
-0.000843624
-0.000576144
-0.000302604
-2.53197e-05
0.000253169
0.000532408
0.00081139
0.00108757
0.00135989
0.00162738
0.00188853
0.00214171
0.00238623
0.0026208
0.00284435
0.00305583
0.00325459
0.00343958
0.00361019
0.00376569
0.0039056
0.00402928
0.00413644
0.00422664
0.00429968
0.00435529
0.00439342
0.00441395
0.00441692
0.00440236
0.00437041
0.00432124
0.00425506
0.00417215
0.00407282
0.00395745
0.00382642
0.00368024
0.0035194
0.00334453
0.00315617
0.00295514
0.00274216
0.0025181
0.00228378
0.00204032
0.00178868
0.00152993
0.00126517
0.000995797
0.000722829
0.000447429
0.000170952
-0.000105086
-0.000379913
-0.000652305
-0.000920501
-0.00118333
-0.00144058
-0.00169035
-0.00193055
-0.00214153
-0.00236164
-0.00257041
-0.00276686
-0.00294711
-0.00311127
-0.00326588
-0.00340651
-0.00351779
-0.00360548
-0.00372058
-0.0037934
-0.00355291
-0.00270344
-0.00192909
-0.00176543
-0.00168524
-0.00167357
-0.00168648
-0.00167808
-0.00164212
-0.00156268
-0.00147966
-0.00142341
-0.00142844
-0.00151133
-0.00219271
-0.00296201
-0.00314147
-0.00298859
-0.00278823
-0.00263274
-0.00245989
-0.00225207
-0.00203383
-0.00181439
-0.00158125
-0.00133344
-0.00107857
-0.000817792
-0.00054944
-0.000275323
1.74335e-06
0.000280879
0.000560822
0.000840126
0.001117
0.00139024
0.00165834
0.00192023
0.00217436
0.00241972
0.00265506
0.00287952
0.00309188
0.00329144
0.00347724
0.00364867
0.0038049
0.00394551
0.00406985
0.00417762
0.00426835
0.00434188
0.00439789
0.00443636
0.00445714
0.0044603
0.00444583
0.0044139
0.00436466
0.00429832
0.00421517
0.00411551
0.00399973
0.00386822
0.00372147
0.00356
0.0033844
0.00319528
0.00299343
0.00277955
0.00255455
0.00231926
0.00207481
0.0018221
0.0015623
0.0012965
0.00102605
0.00075194
0.000475512
0.000198056
-7.90923e-05
-0.000354984
-0.000628115
-0.000897198
-0.00116111
-0.00141881
-0.00166881
-0.00191017
-0.0021244
-0.00234349
-0.00255137
-0.00274806
-0.00292729
-0.00308982
-0.00324264
-0.00337468
-0.00347563
-0.00357581
-0.0036791
-0.00366777
-0.00300382
-0.00206333
-0.00171411
-0.00166823
-0.00170091
-0.00170744
-0.00169353
-0.00162641
-0.00157743
-0.00157485
-0.00152696
-0.00143657
-0.0013161
-0.00129361
-0.00159401
-0.00246417
-0.00300939
-0.00292438
-0.00275511
-0.00259396
-0.00241978
-0.00222044
-0.00201112
-0.00179132
-0.00155477
-0.00130915
-0.00105751
-0.00079543
-0.000525449
-0.000252387
2.41249e-05
0.000304513
0.000585123
0.000864259
0.00114164
0.00141583
0.00168444
0.00194678
0.0022017
0.00244783
0.00268379
0.00290895
0.00312207
0.00332232
0.00350878
0.00368088
0.00383774
0.00397894
0.00410384
0.00421213
0.00430331
0.00437724
0.00443361
0.00447236
0.00449336
0.00449668
0.0044823
0.00445039
0.00440109
0.00433464
0.00425129
0.00415137
0.00403525
0.00390335
0.00375616
0.00359414
0.00341797
0.00322824
0.00302572
0.00281109
0.00258534
0.00234932
0.00210402
0.00185041
0.00158981
0.00132321
0.00105175
0.000776692
0.00049958
0.000221276
-5.70103e-05
-0.000333677
-0.000607182
-0.000877183
-0.00114224
-0.00140011
-0.00164995
-0.00189231
-0.00210902
-0.00232992
-0.00253744
-0.00273037
-0.00291098
-0.00307634
-0.0032178
-0.003342
-0.00346439
-0.00356195
-0.00357295
-0.00355103
-0.00262468
-0.00176734
-0.00168172
-0.00165257
-0.00171466
-0.00168191
-0.00165549
-0.00163958
-0.00160052
-0.00154291
-0.00148813
-0.0014471
-0.00131621
-0.00127012
-0.00129813
-0.00205529
-0.002873
-0.00282367
-0.00274192
-0.00257123
-0.00238117
-0.00219684
-0.00199399
-0.00176886
-0.00153489
-0.00129272
-0.00103882
-0.000776334
-0.000508435
-0.000234712
4.30824e-05
0.000322838
0.000603331
0.000883515
0.00116125
0.00143542
0.00170468
0.0019677
0.00222295
0.00246957
0.0027062
0.00293187
0.00314548
0.00334632
0.00353332
0.00370591
0.00386327
0.00400495
0.00413027
0.00423895
0.00433051
0.00440476
0.0044614
0.00450038
0.00452156
0.004525
0.0045107
0.00447881
0.00442947
0.00436293
0.00427944
0.00417932
0.00406295
0.00393075
0.00378319
0.0036208
0.0034442
0.00325398
0.00305095
0.0028358
0.00260949
0.00237283
0.00212693
0.00187274
0.00161146
0.00134413
0.00107208
0.000796428
0.000518512
0.000239452
-3.92406e-05
-0.000316475
-0.000590973
-0.000861467
-0.0011264
-0.00138504
-0.00163601
-0.00187763
-0.00209823
-0.00231982
-0.0025282
-0.00271941
-0.00289682
-0.00306296
-0.0032084
-0.00332833
-0.00342991
-0.00351864
-0.00357491
-0.00326613
-0.00231439
-0.00168158
-0.00162989
-0.00168663
-0.0017076
-0.00166497
-0.00163825
-0.00164008
-0.00160914
-0.0015294
-0.00146584
-0.00143693
-0.00135857
-0.00123253
-0.0011992
-0.0017313
-0.00258835
-0.00281699
-0.00269115
-0.0025342
-0.00236999
-0.00218559
-0.00197479
-0.00175207
-0.00152405
-0.00128112
-0.00102477
-0.000763415
-0.000496969
-0.000222383
5.61598e-05
0.00033544
0.000615865
0.000896681
0.0011747
0.00144891
0.00171852
0.00198199
0.00223752
0.00248445
0.00272149
0.00294755
0.00316151
0.00336272
0.0035501
0.00372303
0.00388073
0.00402273
0.00414835
0.0042573
0.00434911
0.00442358
0.00448041
0.00451955
0.00454086
0.00454439
0.00453013
0.00449826
0.0044489
0.0043823
0.00429871
0.00419846
0.00408194
0.00394952
0.00380174
0.00363909
0.0034622
0.00327166
0.00306828
0.00285281
0.00262611
0.00238903
0.00214274
0.00188816
0.0016264
0.00135858
0.00108616
0.000810087
0.000531595
0.000252068
-2.68891e-05
-0.000304583
-0.000579741
-0.000850495
-0.0011154
-0.00137458
-0.00162624
-0.00186752
-0.0020947
-0.00231376
-0.00252029
-0.0027157
-0.00289407
-0.0030524
-0.00319583
-0.00332574
-0.00342564
-0.00349225
-0.00354901
-0.0030615
-0.00211579
-0.00156558
-0.00167147
-0.00169572
-0.00164844
-0.00167911
-0.00166904
-0.0016168
-0.00157443
-0.00154942
-0.0014943
-0.00138864
-0.00135364
-0.0012633
-0.00109716
-0.00156569
-0.00238837
-0.00279225
-0.00266734
-0.00253088
-0.00236297
-0.00216839
-0.00196675
-0.00175056
-0.00151586
-0.00127112
-0.00102023
-0.000758687
-0.000488932
-0.000215546
6.13306e-05
0.000341986
0.000623112
0.000903035
0.00118116
0.0014561
0.00172566
0.00198903
0.00224495
0.00249213
0.00272921
0.00295547
0.00316969
0.00337104
0.00355859
0.00373173
0.0038896
0.00403174
0.00415754
0.00426663
0.00435856
0.00443314
0.00449008
0.0045293
0.00455066
0.00455424
0.00454001
0.00450815
0.00445878
0.00439214
0.00430851
0.0042082
0.00409158
0.00395907
0.00381118
0.00364839
0.00347135
0.00328068
0.00307713
0.00286144
0.00263455
0.00239734
0.00215081
0.00189595
0.00163404
0.00136609
0.00109332
0.000816923
0.000538403
0.000258747
-2.07708e-05
-0.000298728
-0.000573534
-0.000844579
-0.00111051
-0.00136936
-0.00161989
-0.00186244
-0.0020947
-0.00231376
-0.00252029
-0.0027157
-0.00289407
-0.0030524
-0.00319583
-0.00332574
-0.00342564
-0.00349225
-0.00354901
-0.0030615
-0.00211579
-0.00156558
-0.00167147
-0.00169572
-0.00164844
-0.00167911
-0.00166904
-0.0016168
-0.00157443
-0.00154942
-0.0014943
-0.00138864
-0.00135364
-0.0012633
-0.00109716
-0.00156569
-0.00238837
-0.00279225
-0.00266734
-0.00253088
-0.00236297
-0.00216839
-0.00196675
-0.00175056
-0.00151586
-0.00127112
-0.00102023
-0.000758687
-0.000488932
-0.000215546
6.13306e-05
0.000341986
0.000623112
0.000903035
0.00118116
0.0014561
0.00172566
0.00198903
0.00224495
0.00249213
0.00272921
0.00295547
0.00316969
0.00337104
0.00355859
0.00373173
0.0038896
0.00403174
0.00415754
0.00426663
0.00435856
0.00443314
0.00449008
0.0045293
0.00455066
0.00455424
0.00454001
0.00450815
0.00445878
0.00439214
0.00430851
0.0042082
0.00409158
0.00395907
0.00381118
0.00364839
0.00347135
0.00328068
0.00307713
0.00286144
0.00263455
0.00239734
0.00215081
0.00189595
0.00163404
0.00136609
0.00109332
0.000816923
0.000538403
0.000258747
-2.07708e-05
-0.000298728
-0.000573534
-0.000844579
-0.00111051
-0.00136936
-0.00161989
-0.00186244
-0.00209823
-0.00231982
-0.0025282
-0.00271941
-0.00289682
-0.00306296
-0.0032084
-0.00332833
-0.00342991
-0.00351864
-0.00357491
-0.00326613
-0.00231439
-0.00168158
-0.00162989
-0.00168663
-0.0017076
-0.00166497
-0.00163825
-0.00164008
-0.00160914
-0.0015294
-0.00146584
-0.00143693
-0.00135857
-0.00123253
-0.0011992
-0.0017313
-0.00258835
-0.00281699
-0.00269115
-0.0025342
-0.00236999
-0.00218559
-0.00197479
-0.00175207
-0.00152405
-0.00128112
-0.00102477
-0.000763415
-0.000496969
-0.000222383
5.61598e-05
0.00033544
0.000615865
0.000896681
0.0011747
0.00144891
0.00171852
0.00198199
0.00223752
0.00248445
0.00272149
0.00294755
0.00316151
0.00336272
0.0035501
0.00372303
0.00388073
0.00402273
0.00414835
0.0042573
0.00434911
0.00442358
0.00448041
0.00451955
0.00454086
0.00454439
0.00453013
0.00449826
0.0044489
0.0043823
0.00429871
0.00419846
0.00408194
0.00394952
0.00380174
0.00363909
0.0034622
0.00327166
0.00306828
0.00285281
0.00262611
0.00238903
0.00214274
0.00188816
0.0016264
0.00135858
0.00108616
0.000810087
0.000531595
0.000252068
-2.68891e-05
-0.000304583
-0.000579741
-0.000850495
-0.0011154
-0.00137458
-0.00162624
-0.00186752
-0.00210902
-0.00232992
-0.00253744
-0.00273037
-0.00291098
-0.00307634
-0.0032178
-0.003342
-0.00346439
-0.00356195
-0.00357295
-0.00355103
-0.00262468
-0.00176734
-0.00168172
-0.00165257
-0.00171466
-0.00168191
-0.00165549
-0.00163958
-0.00160052
-0.00154291
-0.00148813
-0.0014471
-0.00131621
-0.00127012
-0.00129813
-0.00205529
-0.002873
-0.00282367
-0.00274192
-0.00257123
-0.00238117
-0.00219684
-0.00199399
-0.00176886
-0.00153489
-0.00129272
-0.00103882
-0.000776334
-0.000508435
-0.000234712
4.30824e-05
0.000322838
0.000603331
0.000883515
0.00116125
0.00143542
0.00170468
0.0019677
0.00222295
0.00246957
0.0027062
0.00293187
0.00314548
0.00334632
0.00353332
0.00370591
0.00386327
0.00400495
0.00413027
0.00423895
0.00433051
0.00440476
0.0044614
0.00450038
0.00452156
0.004525
0.0045107
0.00447881
0.00442947
0.00436293
0.00427944
0.00417932
0.00406295
0.00393075
0.00378319
0.0036208
0.0034442
0.00325398
0.00305095
0.0028358
0.00260949
0.00237283
0.00212693
0.00187274
0.00161146
0.00134413
0.00107208
0.000796428
0.000518512
0.000239452
-3.92406e-05
-0.000316475
-0.000590973
-0.000861467
-0.0011264
-0.00138504
-0.00163601
-0.00187763
-0.0021244
-0.00234349
-0.00255137
-0.00274806
-0.00292729
-0.00308982
-0.00324264
-0.00337468
-0.00347563
-0.00357581
-0.0036791
-0.00366777
-0.00300382
-0.00206333
-0.00171411
-0.00166823
-0.00170091