# vtk DataFile Version 3.0
fluid_state
ASCII
DATASET RECTILINEAR_GRID
DIMENSIONS 100 40 1
X_COORDINATES 100 float
0.5 1.5 2.5 3.5 4.5 5.5 6.5 7.5 8.5 9.5 10.5 11.5 12.5 13.5 14.5 15.5 16.5 17.5 18.5 19.5 20.5 21.5 22.5 23.5 24.5 25.5 26.5 27.5 28.5 29.5 30.5 31.5 32.5 33.5 34.5 35.5 36.5 37.5 38.5 39.5 40.5 41.5 42.5 43.5 44.5 45.5 46.5 47.5 48.5 49.5 50.5 51.5 52.5 53.5 54.5 55.5 56.5 57.5 58.5 59.5 60.5 61.5 62.5 63.5 64.5 65.5 66.5 67.5 68.5 69.5 70.5 71.5 72.5 73.5 74.5 75.5 76.5 77.5 78.5 79.5 80.5 81.5 82.5 83.5 84.5 85.5 86.5 87.5 88.5 89.5 90.5 91.5 92.5 93.5 94.5 95.5 96.5 97.5 98.5 99.5 
Y_COORDINATES 40 float
0.5 1.5 2.5 3.5 4.5 5.5 6.5 7.5 8.5 9.5 10.5 11.5 12.5 13.5 14.5 15.5 16.5 17.5 18.5 19.5 20.5 21.5 22.5 23.5 24.5 25.5 26.5 27.5 28.5 29.5 30.5 31.5 32.5 33.5 34.5 35.5 36.5 37.5 38.5 39.5 
Z_COORDINATES 1 float
0
POINT_DATA 4000
SCALARS density_difference float 1
LOOKUP_TABLE default
0.000670144
0.000666968
0.000662136
0.000655377
0.000644284
0.000626014
0.000600429
0.000573608
0.000538518
0.000483967
0.000427404
0.000367727
0.000281275
0.000187591
9.5453e-05
-1.7831e-05
-0.000135767
-0.000249455
-0.000373419
-0.000488409
-0.000590069
-0.000697355
-0.000783627
-0.000847567
-0.000913816
-0.000960165
-0.000982963
-0.00100677
-0.00101726
-0.00100961
-0.00100116
-0.000988435
-0.000965003
-0.000936355
-0.000908286
-0.000878792
-0.000842996
-0.000805366
-0.000770921
-0.000735035
-0.000695197
-0.000656658
-0.000620417
-0.000582482
-0.000543275
-0.000506015
-0.000469687
-0.000432348
-0.000395244
-0.000359667
-0.000324372
-0.000288859
-0.000254126
-0.000220408
-0.00018687
-0.000153669
-0.000121316
-8.96729e-05
-5.83467e-05
-2.76492e-05
2.28522e-06
3.16023e-05
6.04294e-05
8.85221e-05
0.000115928
0.00014269
0.00016885
0.000194266
0.000219021
0.00024308
0.000266512
0.000289221
0.000311255
0.000332586
0.00035334
0.00037337
0.00039271
0.000411438
0.000429657
0.000447088
0.000463885
0.000480267
0.000496112
0.000511041
0.000525585
0.000539918
0.000553409
0.000565944
0.000578624
0.000590956
0.000601788
0.000612086
0.000623084
0.000632667
0.00064016
0.000648244
0.000656495
0.000661262
0.000664397
0.000668564
0.000661899
0.000658329
0.000653
0.000644866
0.000631485
0.000608675
0.000584623
0.000559789
0.000513866
0.000456812
0.000411622
0.000343682
0.00024709
0.000164126
7.70924e-05
-4.2475e-05
-0.000161367
-0.000263876
-0.000378728
-0.000499722
-0.00059557
-0.0006881
-0.000777599
-0.000836776
-0.000892241
-0.000946694
-0.000964752
-0.000975959
-0.000997021
-0.000994439
-0.000975117
-0.00096291
-0.000948884
-0.00092155
-0.000888044
-0.000860463
-0.000831916
-0.000794632
-0.0007566
-0.000723787
-0.000688516
-0.000649046
-0.000611395
-0.0005764
-0.000539193
-0.000500962
-0.000464601
-0.000429288
-0.000392729
-0.000356622
-0.000321793
-0.000287414
-0.000252636
-0.000218802
-0.00018574
-0.00015307
-0.000120541
-8.9023e-05
-5.80032e-05
-2.75221e-05
2.54263e-06
3.16548e-05
6.03539e-05
8.83466e-05
0.000115814
0.000142388
0.000168542
0.000193868
0.000218649
0.00024258
0.000266058
0.000288643
0.000310717
0.000331985
0.000352764
0.000372637
0.000392092
0.000410776
0.000428922
0.000446222
0.000463253
0.000479482
0.000495114
0.000510089
0.000524926
0.000538766
0.000552017
0.000564953
0.00057766
0.000588956
0.000599918
0.000610898
0.000620995
0.000629207
0.000637691
0.000645924
0.000651879
0.000655847
0.000660322
0.000662877
0.000656413
0.000655445
0.000648824
0.000635769
0.000621485
0.000604225
0.000578678
0.000540014
0.000498634
0.000457029
0.000391316
0.000309685
0.000242254
0.000152068
3.52039e-05
-6.39521e-05
-0.000170833
-0.00029754
-0.000405027
-0.000511283
-0.000620961
-0.000700426
-0.000778088
-0.000855058
-0.000894475
-0.00092805
-0.000966174
-0.000976473
-0.000974299
-0.000976883
-0.000969482
-0.000949798
-0.000926357
-0.000906149
-0.000880387
-0.000846346
-0.000813833
-0.000784695
-0.000749659
-0.000711808
-0.000677144
-0.0006432
-0.000605454
-0.000568192
-0.000532943
-0.000497368
-0.000460175
-0.000424434
-0.000389515
-0.000354368
-0.000318915
-0.00028488
-0.000251061
-0.000217458
-0.000184126
-0.00015195
-0.000119843
-8.83502e-05
-5.72904e-05
-2.72044e-05
2.73856e-06
3.18273e-05
6.04805e-05
8.82147e-05
0.000115688
0.000142205
0.000168307
0.000193473
0.000218308
0.000242159
0.0002656
0.000288089
0.000310243
0.000331407
0.000352159
0.000372002
0.000391546
0.000410068
0.000428215
0.000445582
0.000462639
0.000478608
0.000494365
0.00050949
0.000524124
0.000537648
0.000551322
0.000564308
0.000576354
0.000587559
0.000599361
0.000609762
0.000618687
0.000627646
0.00063705
0.000643267
0.000648154
0.000654176
0.000658501
0.000657485
0.000657315
0.000652699
0.000645592
0.000635533
0.000620137
0.000600886
0.00057456
0.000534916
0.000496862
0.000450867
0.000375439
0.000301241
0.000232959
0.000126085
9.9232e-06
-8.97002e-05
-0.000202604
-0.000335693
-0.000452096
-0.000549458
-0.000657702
-0.00074875
-0.000812244
-0.000881232
-0.000926485
-0.00094326
-0.000973628
-0.000990893
-0.000976311
-0.000968893
-0.000964428
-0.000945927
-0.00091707
-0.000891547
-0.000868777
-0.000838635
-0.000802207
-0.000770803
-0.000740041
-0.000704263
-0.000667013
-0.000633462
-0.000598848
-0.000562096
-0.000525712
-0.000491421
-0.00045592
-0.000420092
-0.000384977
-0.000351037
-0.000316278
-0.00028211
-0.000248522
-0.000215735
-0.000182585
-0.000150409
-0.000118615
-8.75703e-05
-5.65122e-05
-2.65403e-05
3.17149e-06
3.20429e-05
6.07174e-05
8.83028e-05
0.00011566
0.000142061
0.000168168
0.000193214
0.000218013
0.00024177
0.000265221
0.000287644
0.000309785
0.000330851
0.000351663
0.000371476
0.000390963
0.000409418
0.000427722
0.000445007
0.000461934
0.000477979
0.000493959
0.000508793
0.000523317
0.000537218
0.000550956
0.000563307
0.000575609
0.000587489
0.000598692
0.000608315
0.000618422
0.000627774
0.000635397
0.000641683
0.000648816
0.000653533
0.000655458
0.000656773
0.000659865
0.000653148
0.000648464
0.000641418
0.000624575
0.000600349
0.000575659
0.000546002
0.00049937
0.000433801
0.000377573
0.000312262
0.000197532
9.21361e-05
8.34893e-06
-0.000133623
-0.000274337
-0.0003785
-0.000508438
-0.000632672
-0.000720005
-0.000821395
-0.000889428
-0.000922327
-0.000977212
-0.0010088
-0.000996206
-0.00100035
-0.00100553
-0.000987727
-0.000959194
-0.000939061
-0.000921563
-0.000889817
-0.00085311
-0.000827309
-0.000798588
-0.000761033
-0.000725386
-0.000695345
-0.000660782
-0.00062348
-0.000588755
-0.000555869
-0.000519808
-0.000484028
-0.000449781
-0.00041595
-0.000380525
-0.000346379
-0.000312813
-0.00027949
-0.000245629
-0.000213154
-0.000180765
-0.000148889
-0.000116998
-8.63545e-05
-5.5675e-05
-2.58092e-05
3.87754e-06
3.24291e-05
6.09601e-05
8.84807e-05
0.000115772
0.000141963
0.000168045
0.000193024
0.000217763
0.000241402
0.000264884
0.000287228
0.000309333
0.000330359
0.000351225
0.000370932
0.000390432
0.000408929
0.000427259
0.000444407
0.000461457
0.00047761
0.000493503
0.000508222
0.000523085
0.000537048
0.000550495
0.000562951
0.000575877
0.000587502
0.000598248
0.000608597
0.000619453
0.000627809
0.000635265
0.000643361
0.000650674
0.000653476
0.000656556
0.00066057
0.000662968
0.000663447
0.00065841
0.000645095
0.000633398
0.000615451
0.000585106
0.000551644
0.000506736
0.000443158
0.000382405
0.000297115
0.000181988
8.18221e-05
-3.78022e-05
-0.000190644
-0.000330796
-0.000460734
-0.000595402
-0.000736141
-0.000830001
-0.000911789
-0.000991384
-0.00102553
-0.0010444
-0.00107474
-0.0010618
-0.00104051
-0.0010335
-0.00101099
-0.000978871
-0.000946825
-0.000917587
-0.000889897
-0.000853691
-0.000817655
-0.000786559
-0.000754528
-0.000717603
-0.000682988
-0.000650079
-0.000616021
-0.000579957
-0.00054605
-0.000512207
-0.000477821
-0.000442798
-0.000409479
-0.00037564
-0.000341929
-0.00030817
-0.000275705
-0.00024268
-0.000210321
-0.000178083
-0.000146898
-0.000115352
-8.47983e-05
-5.4362e-05
-2.49215e-05
4.64713e-06
3.30792e-05
6.14168e-05
8.87066e-05
0.000115957
0.00014203
0.000168004
0.000192851
0.00021758
0.000241138
0.000264569
0.000286823
0.000308963
0.00032995
0.000350773
0.000370436
0.000390049
0.000408501
0.000426768
0.000443992
0.000461234
0.000477233
0.000493109
0.000508159
0.000523157
0.000536763
0.000550517
0.000563618
0.000576268
0.00058749
0.000599397
0.000610361
0.00062007
0.000628832
0.000638757
0.000646244
0.00065169
0.000657582
0.000663631
0.000663926
0.000674192
0.000675886
0.000669408
0.000658528
0.000650272
0.00063342
0.000602659
0.000562962
0.000520982
0.000470148
0.000381588
0.000270417
0.000195926
7.08672e-05
-0.000126666
-0.000246281
-0.000377289
-0.000584307
-0.000727235
-0.000842896
-0.000977163
-0.0010423
-0.00110295
-0.00117289
-0.0011514
-0.00112748
-0.00114841
-0.0011225
-0.00106791
-0.00102956
-0.00100777
-0.000973681
-0.000920283
-0.000883781
-0.000857376
-0.000817951
-0.000774794
-0.00074346
-0.000711639
-0.000673743
-0.000637208
-0.000605948
-0.000571898
-0.000536268
-0.000502308
-0.000470283
-0.000435937
-0.000402072
-0.000369125
-0.000336898
-0.000303324
-0.000270947
-0.000238828
-0.000207248
-0.000175078
-0.00014422
-0.0001133
-8.31094e-05
-5.27494e-05
-2.36469e-05
5.57517e-06
3.38381e-05
6.20815e-05
8.9117e-05
0.000116212
0.00014219
0.000168076
0.000192771
0.000217454
0.000240941
0.000264314
0.00028651
0.000308657
0.000329574
0.000350398
0.000370089
0.000389715
0.000408106
0.000426484
0.000443798
0.000461007
0.000477021
0.000493185
0.000508306
0.000523218
0.000537088
0.000551324
0.000564334
0.000576991
0.00058899
0.000601429
0.000612031
0.000622301
0.000632576
0.000642668
0.000649721
0.000657142
0.000665062
0.000670288
0.000671109
0.000690575
0.000686064
0.000685817
0.000686728
0.000670814
0.000647356
0.000632643
0.000597342
0.00053841
0.000481292
0.0003997
0.00029088
0.000176825
1.52248e-05
-0.000144465
-0.000305056
-0.000508163
-0.000688151
-0.000858995
-0.000993162
-0.00113865
-0.00122992
-0.00124762
-0.00127376
-0.00129576
-0.00125088
-0.00121694
-0.00117746
-0.00112842
-0.00108539
-0.00102736
-0.000982476
-0.000943798
-0.000894904
-0.000848883
-0.000813668
-0.000775725
-0.000734956
-0.000697882
-0.000664945
-0.000629102
-0.000593466
-0.000559899
-0.000527525
-0.000493038
-0.000459882
-0.000427409
-0.000395157
-0.000361772
-0.000329907
-0.000297885
-0.00026615
-0.000233972
-0.00020313
-0.000171863
-0.000141254
-0.000110519
-8.0943e-05
-5.10158e-05
-2.20552e-05
6.92729e-06
3.48036e-05
6.28583e-05
8.9779e-05
0.000116686
0.000142453
0.00016826
0.00019287
0.000217438
0.000240816
0.000264175
0.000286329
0.000308408
0.000329288
0.000350172
0.000369844
0.000389425
0.000407886
0.000426405
0.000443666
0.000460893
0.000477182
0.000493505
0.000508482
0.00052367
0.000538109
0.000552312
0.00056519
0.000578804
0.00059153
0.000603424
0.000614512
0.000626942
0.000637364
0.000646378
0.000656114
0.00066679
0.000672578
0.000677741
0.000685945
0.000705296
0.000707483
0.000711755
0.000709024
0.000697071
0.000683524
0.000665084
0.000628792
0.000576084
0.000502962
0.000424812
0.000330508
0.000143381
-3.69133e-05
-0.000127821
-0.000388195
-0.000655404
-0.000772944
-0.000995627
-0.00119546
-0.0012831
-0.00140642
-0.00145071
-0.00137646
-0.00140556
-0.00140153
-0.00129203
-0.00122623
-0.00118624
-0.00113947
-0.00106209
-0.000993903
-0.000956214
-0.000910229
-0.000851321
-0.000807468
-0.00077183
-0.00073026
-0.000687666
-0.000653206
-0.000619152
-0.000582834
-0.000547624
-0.000516149
-0.000483177
-0.000449838
-0.000417399
-0.000386576
-0.000354236
-0.000322482
-0.000291098
-0.000260534
-0.000228953
-0.000198378
-0.000167802
-0.000137928
-0.000107522
-7.82562e-05
-4.88476e-05
-2.02826e-05
8.49761e-06
3.6105e-05
6.38452e-05
9.05674e-05
0.000117333
0.000142916
0.000168565
0.000193072
0.000217546
0.000240835
0.000264134
0.000286225
0.000308273
0.000329159
0.000350021
0.000369666
0.000389324
0.000407859
0.000426353
0.000443685
0.000461148
0.000477511
0.000493822
0.00050913
0.000524709
0.00053912
0.000553525
0.000567213
0.000581207
0.000593826
0.000606644
0.000619098
0.000631562
0.000642302
0.000653727
0.000664945
0.000675094
0.000683091
0.000692642
0.000700958
0.000724438
0.000737662
0.000738957
0.000730931
0.00073719
0.000734293
0.000695397
0.000661686
0.000639253
0.000556295
0.000441462
0.000339896
0.000184081
-1.16391e-05
-0.000244879
-0.000477578
-0.000617648
-0.000888877
-0.00116438
-0.00137665
-0.00144741
-0.00152231
-0.00161296
-0.00160137
-0.00148702
-0.00143353
-0.0013751
-0.00133485
-0.00124197
-0.0011406
-0.00109735
-0.00103964
-0.000959895
-0.000905524
-0.000864223
-0.000812543
-0.000760574
-0.000721711
-0.000684045
-0.00064283
-0.000604759
-0.000572344
-0.00053789
-0.00050316
-0.000470874
-0.00044033
-0.000407688
-0.000376125
-0.000345524
-0.000315264
-0.000283758
-0.000253598
-0.000223426
-0.000193526
-0.000163076
-0.000133851
-0.000104288
-7.53289e-05
-4.61725e-05
-1.81241e-05
1.02208e-05
3.76612e-05
6.51535e-05
9.15576e-05
0.000118114
0.000143593
0.00016906
0.000193401
0.000217786
0.000241021
0.000264205
0.000286237
0.000308282
0.000329153
0.000349957
0.000369647
0.00038938
0.000407916
0.000426427
0.000443962
0.000461557
0.000477912
0.000494437
0.00051018
0.000525852
0.000540321
0.000555417
0.000569758
0.00058365
0.00059677
0.000611178
0.000624192
0.000636337
0.000649042
0.000663217
0.000673996
0.000684425
0.000697863
0.000710242
0.000715531
0.000751397
0.000760658
0.000768119
0.000775902
0.000778299
0.000767506
0.000753915
0.000731871
0.0006796
0.000609616
0.00051534
0.000362623
0.000230678
5.0246e-05
-0.000346331
-0.000521575
-0.000582625
-0.000957475
-0.00117433
-0.00143203
-0.00171446
-0.00175422
-0.00164882
-0.00170503
-0.0015827
-0.0014914
-0.00147168
-0.00137884
-0.00128111
-0.00118083
-0.00111262
-0.00105374
-0.000978359
-0.000914234
-0.000863563
-0.000811628
-0.000759353
-0.000715035
-0.000674334
-0.000633825
-0.00059459
-0.00055978
-0.000525904
-0.00049222
-0.000459152
-0.0004285
-0.000397496
-0.000366656
-0.000335987
-0.000306615
-0.000276465
-0.000246738
-0.000216967
-0.000188014
-0.000158387
-0.000129474
-0.000100428
-7.21297e-05
-4.34242e-05
-1.56321e-05
1.22874e-05
3.93533e-05
6.65909e-05
9.28005e-05
0.000119081
0.00014437
0.000169684
0.000193912
0.000218146
0.000241291
0.000264398
0.000286408
0.000308377
0.000329219
0.000350046
0.00036979
0.000389475
0.00040808
0.00042676
0.000444368
0.000461949
0.000478608
0.000495448
0.000511192
0.000527062
0.000542278
0.000557677
0.000571964
0.000586769
0.000601152
0.000615498
0.000628931
0.000643494
0.000657489
0.000671077
0.000684363
0.000699163
0.000712456
0.000724967
0.00073788
0.000778253
0.000786334
0.000804594
0.000823854
0.000819061
0.000812546
0.000829786
0.000805283
0.000724931
0.000683771
0.000626151
0.000434332
0.00024224
9.80739e-05
-0.000153428
-0.000505563
-0.000890485
-0.000860167
-0.000983007
-0.00130341
-0.00134259
-0.00165029
-0.00175959
-0.00156036
-0.00164573
-0.00165697
-0.00156605
-0.00135286
-0.00128299
-0.0012518
-0.0011315
-0.00103847
-0.000994257
-0.000933555
-0.000858746
-0.000805171
-0.000762181
-0.000711197
-0.000661974
-0.000624471
-0.000587554
-0.000547891
-0.000512228
-0.000481602
-0.000449022
-0.000416347
-0.0003862
-0.000357474
-0.000326945
-0.000297307
-0.000268542
-0.000240008
-0.000210435
-0.000181911
-0.000153378
-0.00012507
-9.6308e-05
-6.85293e-05
-4.05025e-05
-1.30176e-05
1.46114e-05
4.12897e-05
6.81528e-05
9.41979e-05
0.000120241
0.000145303
0.000170425
0.000194568
0.000218639
0.000241684
0.000264713
0.000286691
0.00030857
0.00032942
0.000350251
0.000370004
0.000389685
0.000408419
0.000427167
0.000444828
0.000462556
0.000479503
0.000496448
0.000512355
0.000528677
0.000544353
0.000559874
0.000574669
0.000590467
0.000605413
0.000619991
0.000634822
0.000651179
0.000665625
0.000679999
0.000696671
0.000714105
0.000727229
0.000742665
0.000762889
0.000802599
0.00082537
0.000843326
0.000856263
0.000875373
0.000889383
0.000879074
0.00086197
0.000855417
0.000789184
0.000655081
0.000559521
0.000401624
0.000138568
8.80544e-05
-0.000374568
-0.00110808
-0.000540088
-0.000485015
-0.00101407
-0.000559117
-0.0009864
-0.00120824
-0.00104397
-0.00160746
-0.00173315
-0.0015021
-0.0014243
-0.00131539
-0.00122352
-0.00114258
-0.00106848
-0.000996484
-0.000925387
-0.000864548
-0.000809362
-0.000754276
-0.000704176
-0.000658605
-0.00061541
-0.000575242
-0.000538721
-0.000502896
-0.000469009
-0.000437342
-0.000406875
-0.000376017
-0.000346676
-0.000317948
-0.000289385
-0.000260411
-0.000232459
-0.000204265
-0.00017622
-0.000147924
-0.000120367
-9.24116e-05
-6.48971e-05
-3.72553e-05
-1.03116e-05
1.68855e-05
4.33776e-05
6.99036e-05
9.56411e-05
0.000121448
0.000146385
0.000171279
0.000195271
0.000219214
0.000242207
0.000265103
0.000287022
0.000308868
0.000329741
0.000350492
0.000370278
0.00039005
0.000408846
0.000427552
0.000445429
0.000463389
0.000480356
0.000497408
0.000513898
0.000530482
0.000546106
0.000562286
0.00057815
0.000593912
0.000609093
0.000625641
0.000641676
0.000657382
0.000673736
0.000692059
0.000708758
0.000725744
0.000745364
0.000765764
0.000782808
0.000830118
0.000860465
0.00088205
0.000898523
0.000931458
0.000956974
0.000946192
0.000948588
0.000970242
0.000890563
0.000759882
0.000717302
0.000586833
0.000283791
4.31956e-05
-0.000283007
-0.000601904
-0.000418719
-0.000304559
-0.000451809
-0.000482749
-0.000602985
-0.000494435
-0.000575257
-0.00108535
-0.00139139
-0.0014222
-0.00148984
-0.00134912
-0.0011913
-0.0011491
-0.00108595
-0.000989215
-0.000921565
-0.000872705
-0.000809526
-0.000745268
-0.000698611
-0.000655924
-0.000607689
-0.000563995
-0.000529401
-0.000494625
-0.000458472
-0.000426087
-0.000397231
-0.000367029
-0.000337024
-0.000308856
-0.000281558
-0.000253092
-0.000225256
-0.000197918
-0.000170711
-0.000142833
-0.000115647
-8.84056e-05
-6.13816e-05
-3.40846e-05
-7.49921e-06
1.9221e-05
4.54434e-05
7.17e-05
9.71859e-05
0.00012271
0.000147506
0.000172207
0.000196063
0.000219856
0.000242785
0.000265561
0.000287448
0.000309233
0.000330095
0.000350811
0.000370663
0.000390433
0.000409281
0.000428076
0.000446116
0.000464123
0.000481273
0.000498609
0.000515346
0.000532078
0.000548183
0.000564907
0.000581102
0.000597324
0.000613549
0.000630941
0.000647537
0.000664459
0.00068274
0.000702398
0.000720305
0.000739852
0.000763041
0.000785945
0.000805108
0.000860265
0.000884513
0.00091956
0.000956727
0.000979735
0.00100489
0.00104612
0.00105637
0.00101941
0.00102395
0.00103481
0.000826925
0.000594488
0.000373986
-6.76201e-05
-0.000277036
-0.000376971
-0.000527866
-0.000560068
-0.00038054
-0.0004865
-0.000425015
-0.000381474
-0.000416795
-0.000587474
-0.000871206
-0.00125648
-0.00136178
-0.00129227
-0.0012434
-0.00115596
-0.00105727
-0.000992111
-0.00093491
-0.000863028
-0.000800524
-0.00075026
-0.000696052
-0.000643134
-0.000601005
-0.000561031
-0.000519469
-0.000482784
-0.000451145
-0.000418562
-0.000386567
-0.000357626
-0.000329879
-0.000301024
-0.000273182
-0.000246322
-0.000219396
-0.000191839
-0.000165077
-0.000138303
-0.000111472
-8.43916e-05
-5.79265e-05
-3.12449e-05
-4.83987e-06
2.15977e-05
4.74284e-05
7.33611e-05
9.87272e-05
0.000124004
0.000148583
0.000173111
0.000196898
0.000220522
0.000243352
0.00026605
0.000287929
0.000309607
0.000330457
0.000351194
0.000371084
0.000390788
0.00040975
0.000428685
0.000446757
0.000464781
0.000482301
0.000499847
0.000516549
0.00053363
0.000550505
0.000567276
0.000583523
0.000601009
0.00061826
0.000635168
0.000652802
0.000672646
0.00069126
0.000710082
0.000732359
0.000756403
0.000777262
0.000801723
0.000832408
0.000884775
0.000915487
0.000954708
0.00100007
0.00103447
0.00106456
0.00111781
0.00115623
0.00114208
0.00115063
0.00116914
0.00108498
0.000804789
0.000143954
-0.000363774
-0.000388467
-0.000465295
-0.000503536
-0.000457814
-0.00041415
-0.00048338
-0.000404121
-0.000370149
-0.000388903
-0.000414269
-0.000446077
-0.000782647
-0.00120636
-0.00132501
-0.0012372
-0.0011096
-0.0010509
-0.00100731
-0.000931208
-0.000853259
-0.000799028
-0.000749054
-0.000691187
-0.000637508
-0.000594736
-0.000554301
-0.00051281
-0.000475213
-0.00044275
-0.00041089
-0.000379258
-0.000349811
-0.000322256
-0.000294348
-0.000266769
-0.000239986
-0.000213667
-0.000186827
-0.000160307
-0.000133899
-0.000107623
-8.10077e-05
-5.47773e-05
-2.84841e-05
-2.44841e-06
2.36913e-05
4.93256e-05
7.49629e-05
0.000100121
0.000125201
0.000149648
0.000173988
0.000197671
0.000221169
0.000243942
0.000266537
0.000288374
0.000309997
0.000330867
0.00035155
0.000371458
0.000391206
0.000410247
0.000429159
0.000447365
0.000465569
0.000483181
0.000500787
0.000517884
0.000535254
0.000552196
0.000569361
0.00058642
0.00060414
0.000621629
0.000639795
0.00065857
0.000678462
0.00069835
0.000719785
0.000743052
0.000767776
0.000792464
0.000820502
0.000852576
0.000903944
0.000950294
0.000987378
0.00102479
0.00108471
0.00114149
0.00117398
0.00121918
0.0012892
0.00129161
0.00124108
0.00135932
0.000998608
-4.06996e-05
-0.000511081
-0.000470774
-0.000427264
-0.000399342
-0.000441266
-0.000492087
-0.000393354
-0.000385873
-0.000438623
-0.000392117
-0.00028685
-0.000282847
-0.000502871
-0.00100762
-0.00125126
-0.00117317
-0.00112494
-0.00107051
-0.000980991
-0.000911373
-0.00086642
-0.000803959
-0.000733383
-0.000684065
-0.000641536
-0.000589823
-0.000542998
-0.00050796
-0.000472487
-0.000434786
-0.00040252
-0.000374338
-0.000344478
-0.000315014
-0.000288291
-0.000262159
-0.000234871
-0.00020836
-0.000182621
-0.000156618
-0.000130091
-0.000104163
-7.82303e-05
-5.21927e-05
-2.6027e-05
-3.51462e-07
2.54232e-05
5.09552e-05
7.64037e-05
0.000101326
0.000126215
0.000150597
0.00017478
0.000198339
0.00022174
0.000244486
0.000266974
0.000288765
0.000310364
0.000331246
0.000351858
0.0003718
0.000391607
0.000410674
0.000429557
0.000447942
0.000466279
0.000483882
0.000501609
0.000519142
0.000536607
0.000553524
0.000571291
0.000589053
0.000606563
0.000624415
0.000644226
0.000663506
0.000682728
0.000704732
0.000729192
0.000751387
0.000776078
0.000807542
0.000838696
0.000866099
0.0009231
0.000965843
0.00101362
0.00106258
0.00111896
0.00118477
0.00124019
0.00129014
0.00137445
0.00142572
0.00141508
0.00147209
0.000558889
-0.000355602
-0.000376317
-0.000433728
-0.000441598
-0.000432836
-0.000439165
-0.000434919
-0.000393199
-0.000409099
-0.000378754
-0.000347919
-0.000310347
-0.000314269
-0.000326991
-0.000735169
-0.00117625
-0.00115239
-0.00112696
-0.00104884
-0.000973968
-0.000918981
-0.000858816
-0.000794084
-0.000736264
-0.000683401
-0.00063258
-0.00058566
-0.000542452
-0.000502298
-0.000465448
-0.000431322
-0.000398769
-0.000368175
-0.000339292
-0.000311355
-0.000283878
-0.0002573
-0.000231103
-0.000205058
-0.000179011
-0.000153294
-0.000127449
-0.00010165
-7.57639e-05
-5.00897e-05
-2.4277e-05
1.32808e-06
2.69345e-05
5.22185e-05
7.74863e-05
0.000102345
0.000127078
0.000151325
0.000175407
0.000198925
0.00022222
0.000244901
0.000267338
0.00028913
0.000310658
0.00033152
0.000352151
0.000372126
0.00039187
0.000410997
0.000429996
0.000448392
0.00046669
0.00048455
0.000502454
0.000519885
0.000537529
0.000555048
0.000572814
0.000590426
0.000608849
0.00062751
0.000646714
0.000666558
0.00068807
0.000710103
0.000733495
0.000759038
0.000786943
0.000815962
0.000848435
0.00088439
0.000936794
0.000974725
0.00103134
0.00109526
0.00114407
0.00120119
0.00129068
0.00137649
0.0014284
0.00148398
0.00160699
0.00134343
0.000185291
-0.000449053
-0.000335349
-0.000406422
-0.000460087
-0.000447812
-0.000401525
-0.000388809
-0.000433393
-0.000414619
-0.000335318
-0.000334473
-0.000344686
-0.000283219
-0.000243362
-0.000540331
-0.00104295
-0.00117441
-0.00108516
-0.00101915
-0.000988864
-0.00092738
-0.000842702
-0.000785777
-0.000743063
-0.000683143
-0.000623711
-0.000582482
-0.000543452
-0.000498573
-0.000459784
-0.000428895
-0.000396788
-0.000363996
-0.000335405
-0.000308929
-0.000281122
-0.00025392
-0.00022839
-0.000202888
-0.000176627
-0.000150948
-0.000125598
-9.99805e-05
-7.40797e-05
-4.86005e-05
-2.307e-05
2.46299e-06
2.79888e-05
5.31098e-05
7.82305e-05
0.000103046
0.000127687
0.000151837
0.000175842
0.000199335
0.000222559
0.000245194
0.000267598
0.000289385
0.000310865
0.000331721
0.00035236
0.000372347
0.00039206
0.00041124
0.000430291
0.000448692
0.000467004
0.000485027
0.000502998
0.00052041
0.000538229
0.000556063
0.000573802
0.000591468
0.000610484
0.000629501
0.000648432
0.000668876
0.000691691
0.000713585
0.000736643
0.000764582
0.000794285
0.000821523
0.000855283
0.000897808
0.000941029
0.000992104
0.00103981
0.00109293
0.00116383
0.00123684
0.00130381
0.00138243
0.00146845
0.0015903
0.00173221
0.00122123
0.000228288
-0.000415948
-0.000463861
-0.000418769
-0.000393785
-0.000417488
-0.00043513
-0.000423859
-0.000391191
-0.000366369
-0.000381193
-0.000344371
-0.000307067
-0.000272574
-0.000220954
-0.00048177
-0.000905128
-0.00112446
-0.00109178
-0.00104632
-0.00097076
-0.000904693
-0.000856581
-0.000795585
-0.0007286
-0.000677314
-0.000632214
-0.000581601
-0.000535291
-0.000498277
-0.000462152
-0.000425365
-0.000393
-0.000364093
-0.000334694
-0.000305968
-0.000279376
-0.000253431
-0.000226931
-0.000201022
-0.000175674
-0.000150186
-0.000124375
-9.89235e-05
-7.34567e-05
-4.79108e-05
-2.22778e-05
3.04645e-06
2.8416e-05
5.35974e-05
7.86832e-05
0.000103372
0.000127965
0.000152137
0.000176088
0.000199517
0.000222728
0.000245377
0.000267734
0.000289487
0.000310985
0.000331862
0.000352441
0.000372428
0.000392217
0.000411387
0.000430348
0.000448864
0.000467301
0.000485176
0.000503121
0.000520904
0.000538707
0.000556177
0.000574334
0.000592607
0.000610965
0.000629773
0.000650238
0.000670731
0.000691772
0.000715238
0.000741045
0.000766218
0.00079433
0.000828046
0.000862792
0.000897174
0.000941029
0.000992104
0.00103981
0.00109293
0.00116383
0.00123684
0.00130381
0.00138243
0.00146845
0.0015903
0.00173221
0.00122123
0.000228288
-0.000415948
-0.000463861
-0.000418769
-0.000393785
-0.000417488
-0.00043513
-0.000423859
-0.000391191
-0.000366369
-0.000381193
-0.000344371
-0.000307067
-0.000272574
-0.000220954
-0.00048177
-0.000905128
-0.00112446
-0.00109178
-0.00104632
-0.00097076
-0.000904693
-0.000856581
-0.000795585
-0.0007286
-0.000677314
-0.000632214
-0.000581601
-0.000535291
-0.000498277
-0.000462152
-0.000425365
-0.000393
-0.000364093
-0.000334694
-0.000305968
-0.000279376
-0.000253431
-0.000226931
-0.000201022
-0.000175674
-0.000150186
-0.000124375
-9.89235e-05
-7.34567e-05
-4.79108e-05
-2.22778e-05
3.04645e-06
2.8416e-05
5.35974e-05
7.86832e-05
0.000103372
0.000127965
0.000152137
0.000176088
0.000199517
0.000222728
0.000245377
0.000267734
0.000289487
0.000310985
0.000331862
0.000352441
0.000372428
0.000392217
0.000411387
0.000430348
0.000448864
0.000467301
0.000485176
0.000503121
0.000520904
0.000538707
0.000556177
0.000574334
0.000592607
0.000610965
0.000629773
0.000650238
0.000670731
0.000691772
0.000715238
0.000741045
0.000766218
0.00079433
0.000828046
0.000862792
0.000897174
0.000936794
0.000974725
0.00103134
0.00109526
0.00114407
0.00120119
0.00129068
0.00137649
0.0014284
0.00148398
0.00160699
0.00134343
0.000185291
-0.000449053
-0.000335349
-0.000406422
-0.000460087
-0.000447812
-0.000401525
-0.000388809
-0.000433393
-0.000414619
-0.000335318
-0.000334473
-0.000344686
-0.000283219
-0.000243362
-0.000540331
-0.00104295
-0.00117441
-0.00108516
-0.00101915
-0.000988864
-0.00092738
-0.000842702
-0.000785777
-0.000743063
-0.000683143
-0.000623711
-0.000582482
-0.000543452
-0.000498573
-0.000459784
-0.000428895
-0.000396788
-0.000363996
-0.000335405
-0.000308929
-0.000281122
-0.00025392
-0.00022839
-0.000202888
-0.000176627
-0.000150948
-0.000125598
-9.99805e-05
-7.40797e-05
-4.86005e-05
-2.307e-05
2.46299e-06
2.79888e-05
5.31098e-05
7.82305e-05
0.000103046
0.000127687
0.000151837
0.000175842
0.000199335
0.000222559
0.000245194
0.000267598
0.000289385
0.000310865
0.000331721
0.00035236
0.000372347
0.00039206
0.00041124
0.000430291
0.000448692
0.000467004
0.000485027
0.000502998
0.00052041
0.000538229
0.000556063
0.000573802
0.000591468
0.000610484
0.000629501
0.000648432
0.000668876
0.000691691
0.000713585
0.000736643