# vtk DataFile Version 3.0
fluid_state
ASCII
DATASET RECTILINEAR_GRID
DIMENSIONS 100 40 1
X_COORDINATES 100 float
0.5 1.5 2.5 3.5 4.5 5.5 6.5 7.5 8.5 9.5 10.5 11.5 12.5 13.5 14.5 15.5 16.5 17.5 18.5 19.5 20.5 21.5 22.5 23.5 24.5 25.5 26.5 27.5 28.5 29.5 30.5 31.5 32.5 33.5 34.5 35.5 36.5 37.5 38.5 39.5 40.5 41.5 42.5 43.5 44.5 45.5 46.5 47.5 48.5 49.5 50.5 51.5 52.5 53.5 54.5 55.5 56.5 57.5 58.5 59.5 60.5 61.5 62.5 63.5 64.5 65.5 66.5 67.5 68.5 69.5 70.5 71.5 72.5 73.5 74.5 75.5 76.5 77.5 78.5 79.5 80.5 81.5 82.5 83.5 84.5 85.5 86.5 87.5 88.5 89.5 90.5 91.5 92.5 93.5 94.5 95.5 96.5 97.5 98.5 99.5 
Y_COORDINATES 40 float
0.5 1.5 2.5 3.5 4.5 5.5 6.5 7.5 8.5 9.5 10.5 11.5 12.5 13.5 14.5 15.5 16.5 17.5 18.5 19.5 20.5 21.5 22.5 23.5 24.5 25.5 26.5 27.5 28.5 29.5 30.5 31.5 32.5 33.5 34.5 35.5 36.5 37.5 38.5 39.5 
Z_COORDINATES 1 float
0
POINT_DATA 4000
SCALARS density_difference float 1
LOOKUP_TABLE default
0.000506119
0.000510683
0.000514294
0.000516998
0.000515993
0.00050894
0.000496496
0.000483189
0.000462652
0.000426008
0.000388056
0.000347277
0.000283368
0.000213589
0.000145234
5.77849e-05
-3.3946e-05
-0.000121979
-0.000219655
-0.000310791
-0.000390979
-0.000476356
-0.000544669
-0.000594964
-0.000647656
-0.000683457
-0.000699902
-0.000718476
-0.00072546
-0.000716804
-0.000709317
-0.000698487
-0.000677767
-0.000654172
-0.000632066
-0.000608182
-0.00057968
-0.000550917
-0.000524893
-0.000497819
-0.000468346
-0.00044058
-0.000414819
-0.000388111
-0.000360954
-0.000335753
-0.0003115
-0.000286828
-0.000262673
-0.000239999
-0.000217712
-0.000195502
-0.000174067
-0.000153599
-0.000133331
-0.000113447
-9.42632e-05
-7.56904e-05
-5.73191e-05
-3.94477e-05
-2.20999e-05
-5.17716e-06
1.15006e-05
2.77014e-05
4.35398e-05
5.90353e-05
7.42836e-05
8.9153e-05
0.000103771
0.000118099
0.000132245
0.000146127
0.00015982
0.000173305
0.000186725
0.000199954
0.000213035
0.000226053
0.000239116
0.00025197
0.00026475
0.000277688
0.000290654
0.000303294
0.000316091
0.000329241
0.00034211
0.000354589
0.000367709
0.000381035
0.000393412
0.000405765
0.000419272
0.000431952
0.000443089
0.000455245
0.000468081
0.000478135
0.000487043
0.000497483
0.000498755
0.000502822
0.000506262
0.000507555
0.000504097
0.00049329
0.000482268
0.00047018
0.000440178
0.000401499
0.000373315
0.000324987
0.000252298
0.000192276
0.000127878
3.46603e-05
-5.69093e-05
-0.000135507
-0.000225955
-0.00032128
-0.000395997
-0.000469619
-0.000540159
-0.000585348
-0.000629307
-0.000672727
-0.000684118
-0.000691285
-0.00070869
-0.000704592
-0.000686184
-0.000676742
-0.000665239
-0.000641596
-0.000614601
-0.000593654
-0.000571088
-0.000541932
-0.00051332
-0.000489358
-0.000463237
-0.000434542
-0.000407912
-0.000383727
-0.000357879
-0.000331906
-0.000307698
-0.000284637
-0.000260721
-0.000237649
-0.000215685
-0.000194346
-0.000172738
-0.000152182
-0.000132213
-0.000112725
-9.32926e-05
-7.48133e-05
-5.66058e-05
-3.88817e-05
-2.13398e-05
-4.5683e-06
1.20829e-05
2.82333e-05
4.41954e-05
5.95624e-05
7.48763e-05
8.9706e-05
0.000104404
0.000118661
0.000132903
0.000146711
0.000160482
0.000173948
0.000187421
0.000200532
0.000213735
0.000226739
0.000239732
0.000252469
0.00026546
0.000278257
0.000290984
0.00030365
0.000316694
0.000329355
0.000341923
0.000354752
0.000367858
0.000380146
0.000392548
0.00040553
0.000418144
0.00042943
0.000441407
0.000453739
0.000464362
0.000473496
0.00048366
0.000492713
0.000493598
0.000500257
0.000502147
0.000498535
0.000494787
0.000488908
0.000475562
0.00045159
0.000426265
0.000400268
0.00035372
0.000294287
0.000247299
0.00018014
9.00076e-05
1.5664e-05
-6.58659e-05
-0.000165596
-0.000248924
-0.000331645
-0.000418124
-0.000479834
-0.000540751
-0.00060162
-0.000630553
-0.000655977
-0.000686237
-0.000692012
-0.00068786
-0.000690012
-0.000682549
-0.000664855
-0.000645875
-0.000629747
-0.000608426
-0.000581595
-0.000556599
-0.000534486
-0.000507787
-0.000479792
-0.000454582
-0.000430355
-0.000403363
-0.000377484
-0.000353332
-0.000329396
-0.000304358
-0.00028102
-0.000258391
-0.000235992
-0.00021341
-0.000192354
-0.000171438
-0.000150984
-0.000130699
-0.000111587
-9.24044e-05
-7.38737e-05
-5.5551e-05
-3.81088e-05
-2.05767e-05
-3.76154e-06
1.29258e-05
2.89129e-05
4.49625e-05
6.03379e-05
7.56761e-05
9.04233e-05
0.000105237
0.000119475
0.00013374
0.00014751
0.000161401
0.000174811
0.000188291
0.000201404
0.000214711
0.000227576
0.000240573
0.000253377
0.000266382
0.000278911
0.000291729
0.000304516
0.00031732
0.000329623
0.000342547
0.000355376
0.000367762
0.000379885
0.000393039
0.000405384
0.000416757
0.000428685
0.000441487
0.000451771
0.000461239
0.000472303
0.000482267
0.000487706
0.000494245
0.000497503
0.000498621
0.000497632
0.000492938
0.000484898
0.000470784
0.000446169
0.000423376
0.000393553
0.000338868
0.000285891
0.000238293
0.000156713
6.79605e-05
-6.2791e-06
-9.36629e-05
-0.000198035
-0.000287923
-0.000363843
-0.000449305
-0.000519745
-0.000568714
-0.000623742
-0.000657457
-0.000667677
-0.000691807
-0.000704864
-0.000689035
-0.000681997
-0.000678849
-0.000661926
-0.000637151
-0.000617569
-0.000599423
-0.000575095
-0.000546818
-0.000523575
-0.000500389
-0.000473769
-0.000446645
-0.000423058
-0.000398474
-0.000372916
-0.000347961
-0.000325134
-0.000301338
-0.000277899
-0.00025511
-0.000233662
-0.000211539
-0.000190332
-0.000169541
-0.000149699
-0.000129465
-0.000110297
-9.12887e-05
-7.30652e-05
-5.46468e-05
-3.72381e-05
-1.98106e-05
-3.11098e-06
1.36868e-05
2.96106e-05
4.56489e-05
6.09904e-05
7.64165e-05
9.11199e-05
0.000105982
0.000120193
0.000134535
0.000148298
0.000162236
0.000175595
0.000189177
0.000202295
0.00021558
0.000228396
0.000241555
0.000254288
0.000267164
0.000279751
0.000292765
0.000305249
0.000317905
0.000330523
0.000343465
0.000355629
0.000368179
0.000380878
0.000393396
0.000404904
0.000417284
0.00042951
0.000440542
0.000450737
0.000462177
0.000471974
0.000479557
0.000486919
0.00049628
0.000497134
0.000500508
0.000502437
0.000495702
0.000482916
0.000471067
0.00045487
0.000423663
0.000377658
0.000340322
0.000294421
0.000206584
0.000127768
6.7599e-05
-4.39809e-05
-0.000154069
-0.000232578
-0.000334644
-0.000432837
-0.000500142
-0.000580691
-0.00063273
-0.000655838
-0.000699882
-0.000723855
-0.000708745
-0.000711111
-0.000715151
-0.000697438
-0.000672456
-0.0006566
-0.000641572
-0.000615183
-0.000586022
-0.000566397
-0.000544017
-0.000515279
-0.000488713
-0.000467172
-0.000441888
-0.000415228
-0.000390921
-0.000368559
-0.000343659
-0.000319687
-0.000297023
-0.000275148
-0.000251976
-0.000230384
-0.000209208
-0.000188609
-0.000167486
-0.00014788
-0.000128187
-0.000109183
-8.99925e-05
-7.20562e-05
-5.38465e-05
-3.64491e-05
-1.89428e-05
-2.45265e-06
1.43329e-05
3.02724e-05
4.63507e-05
6.15769e-05
7.70822e-05
9.17901e-05
0.000106687
0.000120853
0.000135306
0.000149047
0.000163021
0.000176389
0.000190077
0.000203126
0.000216461
0.000229339
0.000242546
0.00025515
0.000268147
0.000280831
0.000293746
0.000306087
0.000319038
0.000331683
0.000344282
0.000356479
0.000369576
0.000381958
0.000393916
0.000406036
0.000419059
0.000430193
0.000440892
0.000452731
0.000464234
0.000471971
0.000480436
0.000490333
0.000498522
0.000505635
0.000508532
0.000504658
0.00050224
0.000495047
0.000478017
0.000458252
0.000429112
0.000384764
0.000343229
0.000281093
0.000193488
0.00011963
2.8799e-05
-9.12632e-05
-0.000198862
-0.000300014
-0.000406759
-0.000517666
-0.000590079
-0.000655204
-0.000717776
-0.000741613
-0.00075471
-0.000778941
-0.000764544
-0.000743468
-0.000737863
-0.000717783
-0.000688307
-0.000662176
-0.000638532
-0.000615239
-0.00058598
-0.000558307
-0.000534384
-0.000510055
-0.000482388
-0.000457415
-0.000433688
-0.000409636
-0.000384267
-0.00036123
-0.000338193
-0.000315332
-0.000292018
-0.000270595
-0.000248691
-0.000227399
-0.000205994
-0.000186074
-0.000165557
-0.000145968
-0.000126305
-0.000107818
-8.88046e-05
-7.08592e-05
-5.27496e-05
-3.56381e-05
-1.81145e-05
-1.6465e-06
1.50807e-05
3.08985e-05
4.70528e-05
6.22494e-05
7.77619e-05
9.24246e-05
0.000107409
0.000121566
0.00013606
0.000149776
0.000163856
0.000177234
0.000190943
0.000203983
0.000217469
0.000230325
0.0002435
0.000256179
0.000269367
0.000281893
0.000294781
0.000307406
0.000320455
0.000332714
0.000345551
0.000358294
0.000371054
0.00038297
0.000395927
0.000408515
0.000420338
0.000431731
0.000444581
0.00045569
0.000465305
0.000475715
0.000486684
0.000493012
0.000507695
0.000515986
0.000517169
0.000514774
0.00051569
0.000509764
0.000491284
0.000466022
0.000440725
0.000407016
0.000340995
0.000257914
0.000206662
0.000111282
-4.60676e-05
-0.000134605
-0.000234417
-0.000401875
-0.000513827
-0.000604243
-0.000712029
-0.000761128
-0.00080957
-0.000867178
-0.000843671
-0.000819917
-0.000839073
-0.000814574
-0.000764192
-0.000732708
-0.000714382
-0.000683957
-0.000639347
-0.000610503
-0.000589417
-0.000557819
-0.000524286
-0.000501419
-0.000477786
-0.000449797
-0.000423549
-0.000402141
-0.00037828
-0.000353816
-0.000330922
-0.00031005
-0.00028719
-0.000265324
-0.000244194
-0.000224065
-0.000202712
-0.000182824
-0.000162997
-0.000143959
-0.000124241
-0.000105957
-8.73642e-05
-6.96233e-05
-5.14649e-05
-3.45579e-05
-1.72122e-05
-7.95362e-07
1.59614e-05
3.16416e-05
4.7775e-05
6.29698e-05
7.85078e-05
9.31091e-05
0.000108154
0.000122311
0.00013684
0.00015056
0.000164726
0.000178083
0.000191856
0.000204956
0.000218503
0.000231317
0.000244626
0.000257395
0.000270563
0.000283084
0.000296236
0.000308904
0.000321834
0.000334279
0.000347532
0.000360122
0.000372783
0.000385333
0.00039872
0.000410825
0.000422988
0.000435683
0.000448565
0.000459007
0.000470198
0.000482389
0.000492394
0.000498751
0.000521213
0.000523637
0.000530183
0.000537993
0.000531857
0.000519793
0.000515415
0.000494251
0.000453628
0.00041502
0.000356574
0.000275017
0.000190444
6.59833e-05
-5.67111e-05
-0.000179759
-0.000342428
-0.000483329
-0.000617736
-0.00072602
-0.000845598
-0.000917597
-0.000928961
-0.00094985
-0.000967167
-0.000925726
-0.000895313
-0.000861898
-0.000817098
-0.000779214
-0.000730722
-0.000691915
-0.000658893
-0.000619146
-0.000581982
-0.000554281
-0.000524898
-0.00049404
-0.000466512
-0.000442954
-0.000417213
-0.000392252
-0.000369111
-0.000347463
-0.000324091
-0.000302333
-0.000281147
-0.000260594
-0.000239022
-0.00021918
-0.000199102
-0.000179647
-0.000159668
-0.000141187
-0.000122135
-0.000103939
-8.53936e-05
-6.80872e-05
-5.0176e-05
-3.32795e-05
-1.60297e-05
1.47686e-07
1.68619e-05
3.2536e-05
4.86117e-05
6.37069e-05
7.92833e-05
9.38864e-05
0.000108924
0.000123053
0.00013766
0.000151398
0.000165579
0.000178949
0.000192841
0.000205955
0.00021951
0.000232408
0.000245881
0.0002586
0.0002718
0.000284564
0.000297856
0.000310348
0.000323512
0.000336436
0.000349591
0.000361974
0.000375464
0.000388575
0.000401314
0.000413755
0.000427795
0.000440404
0.000452093
0.000464865
0.000478783
0.000488696
0.000498456
0.000511279
0.000532951
0.000540713
0.000550956
0.000555728
0.000552453
0.000548082
0.000541224
0.000519683
0.000482927
0.00043113
0.00037778
0.000309147
0.000162242
2.39308e-05
-3.66374e-05
-0.000245304
-0.000459857
-0.000545075
-0.000727066
-0.000890731
-0.00096057
-0.00106585
-0.00110064
-0.00103296
-0.00106109
-0.00105928
-0.000958654
-0.000901746
-0.000870117
-0.000826819
-0.000758471
-0.000701894
-0.000670458
-0.000631375
-0.000582955
-0.000548981
-0.000521702
-0.000489686
-0.000457804
-0.000433512
-0.000409356
-0.000383834
-0.0003596
-0.000338892
-0.000316826
-0.000294959
-0.000273891
-0.000254535
-0.000233806
-0.000214012
-0.00019443
-0.000175878
-0.00015631
-0.000137954
-0.000119391
-0.000101705
-8.33223e-05
-6.61692e-05
-4.85884e-05
-3.19171e-05
-1.47252e-05
1.32345e-06
1.78769e-05
3.34784e-05
4.95364e-05
6.45588e-05
8.00977e-05
9.46895e-05
0.000109735
0.000123856
0.000138493
0.000152233
0.000166459
0.000179881
0.000193816
0.000206937
0.00022061
0.000233596
0.000247077
0.000259861
0.000273294
0.000286112
0.000299386
0.000312142
0.000325643
0.000338487
0.000351763
0.000364802
0.000378574
0.000391468
0.000404911
0.000418469
0.00043241
0.000445087
0.000458738
0.000472677
0.000485901
0.000497447
0.000510824
0.000523577
0.00054813
0.000565382
0.000572334
0.000571991
0.000584518
0.000589262
0.000564041
0.000544152
0.000534644
0.00047488
0.000388858
0.000316963
0.000199919
4.83566e-05
-0.000132807
-0.000313199
-0.000413206
-0.000635089
-0.000862896
-0.00103631
-0.00109171
-0.00115852
-0.00124045
-0.00123114
-0.00112993
-0.00108482
-0.00103536
-0.00099816
-0.000917624
-0.00082985
-0.00079079
-0.00074082
-0.000672772
-0.00062748
-0.000594101
-0.000552396
-0.00051137
-0.000482506
-0.000454809
-0.000424587
-0.000397486
-0.000375694
-0.000352118
-0.000328713
-0.000307514
-0.000288122
-0.000266842
-0.000246879
-0.0002277
-0.000209104
-0.000189324
-0.000171062
-0.000152638
-0.000134722
-0.000116154
-9.8927e-05
-8.1157e-05
-6.41272e-05
-4.66537e-05
-3.03199e-05
-1.33853e-05
2.63697e-06
1.90766e-05
3.4502e-05
5.04843e-05
6.55095e-05
8.09787e-05
9.5509e-05
0.000110566
0.000124709
0.000139321
0.000153071
0.000167364
0.000180819
0.000194758
0.000207958
0.000221745
0.000234748
0.000248276
0.000261254
0.000274818
0.000287607
0.000301075
0.000314202
0.000327745
0.000340572
0.000354446
0.000367997
0.000381549
0.00039479
0.000409606
0.000423468
0.000436898
0.00045124
0.000467194
0.000480339
0.000493567
0.000509868
0.000525332
0.000534854
0.000569568
0.000583024
0.000595113
0.000607635
0.000616264
0.000614615
0.000610289
0.000599068
0.000565658
0.000517737
0.000447926
0.000334026
0.000241574
0.000107021
-0.000213644
-0.000342931
-0.000376106
-0.000684809
-0.000852872
-0.00107096
-0.00131847
-0.00135524
-0.00126992
-0.00132419
-0.00121388
-0.00113297
-0.0011244
-0.00104292
-0.000951634
-0.000865234
-0.000806723
-0.000753619
-0.000688067
-0.000634633
-0.000593238
-0.000551006
-0.000509681
-0.00047636
-0.000446267
-0.000416884
-0.00038908
-0.000365441
-0.000342585
-0.000320297
-0.000298581
-0.000279179
-0.000259408
-0.000240094
-0.000220848
-0.000202986
-0.000184342
-0.000166354
-0.000148188
-0.000130991
-0.000113031
-9.59377e-05
-7.85069e-05
-6.19277e-05
-4.47269e-05
-2.84875e-05
-1.18177e-05
3.99399e-06
2.03186e-05
3.56805e-05
5.15146e-05
6.64705e-05
8.18943e-05
9.64085e-05
0.000111411
0.000125548
0.000140164
0.000153954
0.000168242
0.000181721
0.000195734
0.000209017
0.000222801
0.00023589
0.000249598
0.000262645
0.000276208
0.000289262
0.000303004
0.000316094
0.00032979
0.000343234
0.000357318
0.00037073
0.000385022
0.000399274
0.000413899
0.000427978
0.00044341
0.00045868
0.000473882
0.00048902
0.000505829
0.000521643
0.000536944
0.000552802
0.000590546
0.000602277
0.000623605
0.000645649
0.00064709
0.000648333
0.000670467
0.000657371
0.000598454
0.000574524
0.000540032
0.000393123
0.000248644
0.000150805
-4.0512e-05
-0.000322666
-0.000639161
-0.000586707
-0.000695541
-0.000987983
-0.00101644
-0.00127902
-0.00136238
-0.00118578
-0.00127264
-0.00128933
-0.0012071
-0.00102129
-0.000960016
-0.000929489
-0.000822292
-0.000740845
-0.000703388
-0.000651147
-0.000587643
-0.000544884
-0.000511867
-0.000472247
-0.000435047
-0.000408846
-0.000383163
-0.000355428
-0.000331438
-0.00031206
-0.000290831
-0.0002698
-0.000250966
-0.000233514
-0.000214359
-0.000196267
-0.000178831
-0.000161779
-0.000143695
-0.000126787
-0.000109692
-9.29842e-05
-7.56928e-05
-5.94523e-05
-4.2732e-05
-2.66269e-05
-1.01102e-05
5.47509e-06
2.15753e-05
3.69032e-05
5.26162e-05
6.74678e-05
8.28091e-05
9.73328e-05
0.000112263
0.000126387
0.000141
0.000154824
0.000169087
0.000182626
0.00019669
0.000210017
0.000223833
0.000237065
0.000250858
0.000263955
0.000277661
0.000290969
0.000304789
0.000317985
0.000332068
0.000345873
0.00035998
0.000373758
0.000388888
0.000403501
0.000418143
0.000433354
0.000450265
0.000465609
0.000481232
0.000499262
0.000518076
0.000533161
0.000550795
0.000572886
0.000609108
0.00063311
0.000653061
0.000669267
0.000691172
0.000708364
0.000706075
0.000700328
0.000702522
0.000655746
0.000559623
0.000496491
0.000380301
0.000179873
0.000170097
-0.000208944
-0.000847107
-0.00034707
-0.000315069
-0.000790563
-0.000372476
-0.000752745
-0.00092869
-0.000751809
-0.00125486
-0.00136763
-0.00115467
-0.00108358
-0.000990994
-0.000906868
-0.000833578
-0.000768336
-0.00070477
-0.000643383
-0.000592546
-0.000547812
-0.00050385
-0.000465416
-0.000431773
-0.000400617
-0.000372338
-0.00034776
-0.000323849
-0.000301767
-0.000281615
-0.000262687
-0.000243283
-0.000225365
-0.000207886
-0.000190701
-0.000173032
-0.000156457
-0.000139537
-0.000122923
-0.000105946
-8.97999e-05
-7.31127e-05
-5.6966e-05
-4.04877e-05
-2.47433e-05
-8.49904e-06
7.04218e-06
2.29326e-05
3.8095e-05
5.36894e-05
6.85256e-05
8.37386e-05
9.82142e-05
0.000113101
0.00012725
0.000141802
0.000155638
0.000169923
0.00018353
0.000197563
0.000210961
0.00022489
0.000238197
0.000251971
0.000265277
0.000279191
0.000292501
0.000306412
0.000320105
0.000334372
0.00034807
0.000362727
0.000377367
0.000392336
0.000407051
0.00042335
0.000439417
0.000455524
0.00047241
0.000491303
0.000508939
0.000527066
0.000547659
0.000569108
0.000587782
0.000630094
0.000660227
0.000682361
0.000700724
0.000734003
0.000760531
0.000756578
0.000765408
0.000791898
0.000735553
0.000638165
0.000620024
0.000535864
0.000301414
0.000119956
-0.000155122
-0.000441795
-0.000285793
-0.000181978
-0.000313757
-0.000344515
-0.000451399
-0.000346233
-0.00040283
-0.000840023
-0.00107512
-0.00109016
-0.00114945
-0.00101924
-0.00087885
-0.000842013
-0.000785322
-0.000697983
-0.000639482
-0.000599316
-0.000546988
-0.000495047
-0.000459959
-0.000428777
-0.000393291
-0.000362376
-0.000339775
-0.000316908
-0.00029306
-0.000272572
-0.000255209
-0.000236471
-0.000218063
-0.000201171
-0.000185099
-0.000167862
-0.000151357
-0.000135157
-0.000119191
-0.000102504
-8.65902e-05
-7.04456e-05
-5.46119e-05
-3.83445e-05
-2.28057e-05
-6.88932e-06
8.52662e-06
2.42636e-05
3.93043e-05
5.47289e-05
6.95332e-05
8.46434e-05
9.90805e-05
0.000113897
0.00012806
0.000142559
0.000156427
0.000170702
0.000184349
0.000198387
0.000211883
0.000225837
0.000239214
0.000253083
0.000266547
0.000280504
0.000293966
0.000308117
0.000322007
0.000336362
0.00035043
0.000365523
0.000380373
0.000395631
0.000411161
0.000428107
0.000444465
0.000461423
0.000479863
0.000499708
0.000517983
0.000538061
0.000561578
0.000584687
0.000604538
0.000653052
0.000677008
0.000710816
0.000746166
0.000769002
0.000794841
0.00083501
0.000847912
0.00082391
0.000839292
0.00085839
0.000700964
0.000532235
0.000370608
1.44894e-05
-0.000166785
-0.000256862
-0.000380952
-0.000407909
-0.000252215
-0.000348817
-0.000287834
-0.000248102
-0.000289936
-0.000433213
-0.000652414
-0.00095879
-0.00103343
-0.000972757
-0.000932209
-0.000848949
-0.000757972
-0.000701357
-0.000651918
-0.000589725
-0.000537985
-0.000498864
-0.000456919
-0.000416732
-0.000387038
-0.000359562
-0.000330879
-0.000306701
-0.000287134
-0.000266537
-0.000246538
-0.000229168
-0.00021283
-0.000195329
-0.000178837
-0.000163083
-0.000147317
-0.000130874
-0.000115271
-9.95083e-05
-8.37932e-05
-6.77202e-05
-5.22973e-05
-3.6485e-05
-2.09917e-05
-5.25187e-06
9.91342e-06
2.54482e-05
4.04788e-05
5.57486e-05
7.0447e-05
8.54703e-05
9.99216e-05
0.000114639
0.000128784
0.000143261
0.000157176
0.000171394
0.00018508
0.000199169
0.00021273
0.000226646
0.000240156
0.000254159
0.000267653
0.000281631
0.000295426
0.000309734
0.000323558
0.00033821
0.000352915
0.000367953
0.00038278
0.000399113
0.000415399
0.000431728
0.000448916
0.000468324
0.000486707
0.000505548
0.000527576
0.000551227
0.000572046
0.000596288
0.000626007
0.000671272
0.000700216
0.000736965
0.000778506
0.000810253
0.000839039
0.000888073
0.000924655
0.00091799
0.000931985
0.000960684
0.000909902
0.00069143
0.000155486
-0.000250287
-0.00026323
-0.000327
-0.000362514
-0.000324421
-0.00028188
-0.000340639
-0.000272513
-0.000246349
-0.00026026
-0.000276473
-0.000302792
-0.00057538
-0.000916314
-0.0010089
-0.000926821
-0.00080966
-0.000754558
-0.000715088
-0.000647576
-0.000580663
-0.000536642
-0.000497044
-0.000451639
-0.000411237
-0.000381139
-0.000353271
-0.000324863
-0.000300127
-0.000279986
-0.000260219
-0.0002407
-0.000223
-0.00020693
-0.000190366
-0.000174135
-0.000158471
-0.000143244
-0.000127428
-0.000111983
-9.65059e-05
-8.12185e-05
-6.54961e-05
-5.01933e-05
-3.46613e-05
-1.94074e-05
-3.85929e-06
1.12206e-05
2.65583e-05
4.14882e-05
5.66464e-05
7.13043e-05
8.62152e-05
0.000100643
0.000115297
0.000129451
0.000143877
0.000157807
0.000172011
0.000185755
0.000199822
0.000213434
0.000227408
0.000241008
0.000255001
0.000268627
0.000282759
0.000296629
0.000310979
0.000325131
0.000339999
0.000354721
0.000370057
0.000385524
0.000401976
0.000418375
0.000435689
0.000453729
0.000473021
0.000492316
0.000513217
0.000535868
0.000559802
0.000583577
0.000610577
0.000641057
0.000685258
0.000727511
0.000760879
0.000794605
0.000848676
0.000898962
0.000927251
0.000968856
0.00103375
0.00104117
0.00100891
0.00111979
0.000839695
1.71072e-06
-0.000378693
-0.000340213
-0.000298659
-0.000272989
-0.000307572
-0.000351689
-0.000263448
-0.000257557
-0.000305304
-0.00026293
-0.000170129
-0.000163332
-0.000353893
-0.000779436
-0.000952399
-0.000866293
-0.000823242
-0.000774513
-0.000692182
-0.000629963
-0.000592308
-0.000540359
-0.00048244
-0.000445044
-0.000414445
-0.000376166
-0.000342933
-0.000320603
-0.000297741
-0.000272995
-0.000253166
-0.000236869
-0.000218812
-0.000201141
-0.000185781
-0.000170847
-0.000154726
-0.000139362
-0.000124543
-0.000109495
-9.38792e-05
-7.8869e-05
-6.37051e-05
-4.84907e-05
-3.30242e-05
-1.80258e-05
-2.7384e-06
1.23293e-05
2.75481e-05
4.2338e-05
5.73829e-05
7.20473e-05
8.68606e-05
0.000101238
0.000115849
0.000130028
0.00014439
0.000158326
0.000172537
0.000186326
0.00020035
0.000214024
0.000228065
0.000241701
0.000255677
0.000269479
0.000283719
0.000297569
0.000312024
0.000326551
0.000341449
0.00035611
0.000371964
0.000387975
0.000404119
0.000420787
0.000439497
0.000457772
0.00047628
0.0004974
0.000520767
0.000542022
0.000565725
0.0005954
0.00062453
0.000650154
0.000699578
0.000737941
0.00078039
0.000823732
0.000873016
0.000929763
0.000978359
0.00102234
0.00109439
0.00114269
0.00114511
0.00120147
0.0004745
-0.000251854
-0.00026678
-0.000312011
-0.000314564
-0.000303311
-0.000305289
-0.00030285
-0.000266198
-0.000278478
-0.000250123
-0.000224093
-0.000195745
-0.000193086
-0.000198992
-0.000529859
-0.000883143
-0.000857265
-0.000828701
-0.000754262
-0.000685696
-0.00063791
-0.000585719
-0.000531013
-0.000484764
-0.000444153
-0.000406036
-0.000372242
-0.000342296
-0.000315355
-0.000291473
-0.000270106
-0.000250032
-0.000231659
-0.000214654
-0.000198403
-0.000182378
-0.000167113
-0.000152029
-0.000137058
-0.000121957
-0.000107169
-9.21455e-05
-7.71937e-05
-6.20448e-05
-4.71153e-05
-3.19173e-05
-1.69193e-05
-1.74512e-06
1.31562e-05
2.82619e-05
4.30507e-05
5.79928e-05
7.25895e-05
8.73512e-05
0.000101737
0.000116282
0.000130446
0.000144792
0.00015876
0.000172928
0.000186732
0.00020079
0.000214513
0.000228508
0.000242219
0.0002563
0.000270112
0.000284321
0.000298404
0.00031299
0.000327408
0.000342459
0.000357619
0.000373404
0.000389251
0.00040617
0.000423444
0.000441507
0.000460231
0.000480648
0.00050157
0.000523845
0.000547946
0.000574205
0.000601344
0.000631408
0.000664314
0.000709723
0.000743315
0.00079356
0.000849424
0.000890698
0.000939403
0.00101724
0.00108963
0.00113187
0.00118319
0.00129288
0.00108815
0.000166321
-0.000333577
-0.000237322
-0.000288398
-0.000328796
-0.000318152
-0.00027644
-0.000261695
-0.000300082
-0.0002856
-0.000214218
-0.00020939
-0.000222
-0.000174717
-0.000127985
-0.000360473
-0.000776974
-0.000877428
-0.00079264
-0.000731164
-0.000700977
-0.000644672
-0.000570754
-0.00052405
-0.000491021
-0.000443444
-0.000397765
-0.000369405
-0.000343118
-0.000311845
-0.000286412
-0.000268083
-0.000248396
-0.000228103
-0.000211488
-0.000196586
-0.000180272
-0.000164494
-0.000150055
-0.000135555
-0.000120258
-0.00010551
-9.0922e-05
-7.60942e-05
-6.09141e-05
-4.6134e-05
-3.11576e-05
-1.61809e-05
-1.05388e-06
1.37386e-05
2.87456e-05
4.35353e-05
5.84192e-05
7.29644e-05
8.76847e-05
0.00010208
0.000116581
0.000130733
0.000145068
0.000159056
0.000173194
0.000187015
0.000201092
0.000214838
0.000228813
0.000242586
0.000256714
0.000270531
0.000284755
0.000298984
0.000313612
0.000327999
0.000343202
0.000358619
0.00037433
0.000390201
0.000407628
0.000425138
0.000442869
0.000462103
0.000483604
0.000504214
0.000526079
0.000552284
0.000579905
0.000605107
0.000636236
0.000674846
0.000712584
0.000757846
0.000799405
0.000845129
0.000906554
0.000968882
0.00102416
0.00109035
0.0011657
0.00126725
0.00138228
0.000978722
0.000198404
-0.000309534
-0.000341055
-0.000300069
-0.000276064
-0.000291216
-0.000304685
-0.000294165
-0.000264437
-0.000240541
-0.000254346
-0.000224759
-0.000186809
-0.000155442
-0.000117813
-0.000333956
-0.000671262
-0.000842516
-0.000802098
-0.000753826
-0.000684407
-0.000625217
-0.000583864
-0.000532522
-0.000477601
-0.000438402
-0.000405536
-0.00036831
-0.000335651
-0.000311726
-0.000288541
-0.000264834
-0.000245113
-0.000228366
-0.000210942
-0.000194068
-0.000178943
-0.000164267
-0.000148932
-0.000134113
-0.000119654
-0.000105039
-9.00322e-05
-7.53653e-05
-6.05577e-05
-4.56857e-05
-3.06134e-05
-1.58131e-05
-8.02683e-07
1.40675e-05
2.90509e-05
4.37451e-05
5.86054e-05
7.31888e-05
8.78686e-05
0.000102225
0.000116729
0.000130905
0.000145205
0.000159178
0.000173342
0.000187187
0.000201215
0.000214975
0.000229022
0.000242783
0.000256837
0.000270768
0.000285091
0.00029918
0.000313799
0.000328514
0.000343664
0.000358754
0.000374859
0.000391223
0.000408003
0.000425356
0.000444449
0.000463596
0.000483471
0.000505548
0.000529752
0.00055327
0.000579496
0.000610521
0.000642211
0.000673251
0.000712584
0.000757846
0.000799405
0.000845129
0.000906554
0.000968882
0.00102416
0.00109035
0.0011657
0.00126725
0.00138228
0.000978722
0.000198404
-0.000309534
-0.000341055
-0.000300069
-0.000276064
-0.000291216
-0.000304685
-0.000294165
-0.000264437
-0.000240541
-0.000254346
-0.000224759
-0.000186809
-0.000155442
-0.000117813
-0.000333956
-0.000671262
-0.000842516
-0.000802098
-0.000753826
-0.000684407
-0.000625217
-0.000583864
-0.000532522
-0.000477601
-0.000438402
-0.000405536
-0.00036831
-0.000335651
-0.000311726
-0.000288541
-0.000264834
-0.000245113
-0.000228366
-0.000210942
-0.000194068
-0.000178943
-0.000164267
-0.000148932
-0.000134113
-0.000119654
-0.000105039
-9.00322e-05
-7.53653e-05
-6.05577e-05
-4.56857e-05
-3.06134e-05
-1.58131e-05
-8.02683e-07
1.40675e-05
2.90509e-05
4.37451e-05
5.86054e-05
7.31888e-05
8.78686e-05
0.000102225
0.000116729
0.000130905
0.000145205
0.000159178
0.000173342
0.000187187
0.000201215
0.000214975
0.000229022
0.000242783
0.000256837
0.000270768
0.000285091
0.00029918
0.000313799
0.000328514
0.000343664
0.000358754
0.000374859
0.000391223
0.000408003
0.000425356
0.000444449
0.000463596
0.000483471
0.000505548
0.000529752
0.00055327
0.000579496
0.000610521
0.000642211
0.000673251
0.000709723
0.000743315
0.00079356
0.000849424
0.000890698
0.000939403
0.00101724
0.00108963
0.00113187
0.00118319
0.00129288
0.00108815
0.000166321
-0.000333577
-0.000237322
-0.000288398
-0.000328796
-0.000318152
-0.00027644
-0.000261695
-0.000300082
-0.0002856
-0.000214218
-0.00020939
-0.000222
-0.000174717
-0.000127985
-0.000360473
-0.000776974
-0.000877428
-0.00079264
-0.000731164
-0.000700977
-0.000644672
-0.000570754
-0.00052405
-0.000491021
-0.000443444
-0.000397765
-0.000369405
-0.000343118
-0.000311845
-0.000286412
-0.000268083
-0.000248396
-0.000228103
-0.000211488
-0.000196586
-0.000180272
-0.000164494
-0.000150055
-0.000135555
-0.000120258
-0.00010551
-9.0922e-05
-7.60942e-05
-6.09141e-05
-4.6134e-05
-3.11576e-05
-1.61809e-05
-1.05388e-06
1.37386e-05
2.87456e-05
4.35353e-05
5.84192e-05
7.29644e-05
8.76847e-05
0.00010208
0.000116581
0.000130733
0.000145068
0.000159056
0.000173194
0.000187015
0.000201092
0.000214838
0.000228813
0.000242586
0.000256714
0.000270531