# vtk DataFile Version 3.0
fluid_state
ASCII
DATASET RECTILINEAR_GRID
DIMENSIONS 100 40 1
X_COORDINATES 100 float
0.5 1.5 2.5 3.5 4.5 5.5 6.5 7.5 8.5 9.5 10.5 11.5 12.5 13.5 14.5 15.5 16.5 17.5 18.5 19.5 20.5 21.5 22.5 23.5 24.5 25.5 26.5 27.5 28.5 29.5 30.5 31.5 32.5 33.5 34.5 35.5 36.5 37.5 38.5 39.5 40.5 41.5 42.5 43.5 44.5 45.5 46.5 47.5 48.5 49.5 50.5 51.5 52.5 53.5 54.5 55.5 56.5 57.5 58.5 59.5 60.5 61.5 62.5 63.5 64.5 65.5 66.5 67.5 68.5 69.5 70.5 71.5 72.5 73.5 74.5 75.5 76.5 77.5 78.5 79.5 80.5 81.5 82.5 83.5 84.5 85.5 86.5 87.5 88.5 89.5 90.5 91.5 92.5 93.5 94.5 95.5 96.5 97.5 98.5 99.5 
Y_COORDINATES 40 float
0.5 1.5 2.5 3.5 4.5 5.5 6.5 7.5 8.5 9.5 10.5 11.5 12.5 13.5 14.5 15.5 16.5 17.5 18.5 19.5 20.5 21.5 22.5 23.5 24.5 25.5 26.5 27.5 28.5 29.5 30.5 31.5 32.5 33.5 34.5 35.5 36.5 37.5 38.5 39.5 
Z_COORDINATES 1 float
0
POINT_DATA 4000
SCALARS density_difference float 1
LOOKUP_TABLE default
0.000758811
0.000766487
0.000772632
0.000776579
0.000775282
0.000766281
0.00074937
0.000730547
0.000702217
0.000652739
0.000600688
0.000544349
0.000458325
0.000364243
0.000270827
0.000153528
3.07324e-05
-8.8389e-05
-0.000219635
-0.00034147
-0.000449871
-0.000565326
-0.000658265
-0.000727876
-0.000800849
-0.00085269
-0.000880084
-0.000909094
-0.000924102
-0.000920477
-0.000916844
-0.000908823
-0.000889639
-0.000865868
-0.000843351
-0.000819163
-0.000788831
-0.000757446
-0.00072953
-0.000700136
-0.000667231
-0.00063608
-0.000607343
-0.000577051
-0.000545804
-0.000516682
-0.00048856
-0.000459511
-0.000430801
-0.000403617
-0.000376678
-0.000349446
-0.000322907
-0.00029722
-0.000271519
-0.000245907
-0.000220883
-0.000196241
-0.000171561
-0.000147103
-0.000122993
-9.90185e-05
-7.50441e-05
-5.12638e-05
-2.76292e-05
-4.04116e-06
1.95346e-05
4.30026e-05
6.64319e-05
8.98314e-05
0.000113249
0.000136628
0.000159983
0.00018332
0.000206735
0.000230103
0.000253407
0.000276761
0.000300222
0.000323509
0.00034672
0.000370124
0.000393515
0.000416489
0.000439556
0.000462935
0.000485836
0.000508147
0.000531021
0.00055392
0.000575454
0.000596748
0.000619106
0.000640124
0.000658987
0.000678803
0.000698919
0.000715197
0.000729832
0.000745851
0.000749627
0.000757257
0.00076273
0.000764715
0.000761099
0.000747565
0.000731767
0.000714846
0.000675184
0.000623072
0.000582682
0.000517441
0.000420818
0.000337991
0.000249725
0.00012602
1.74244e-06
-0.000105346
-0.000226375
-0.000355274
-0.000457636
-0.000556513
-0.000653251
-0.00071795
-0.000779308
-0.000839557
-0.000861759
-0.000877425
-0.000903825
-0.000905217
-0.000889759
-0.000882443
-0.000873439
-0.000850478
-0.000822042
-0.000800256
-0.000777459
-0.000745925
-0.000714421
-0.000688418
-0.000660058
-0.000627741
-0.000597726
-0.000570469
-0.000541173
-0.000510998
-0.000482935
-0.000455911
-0.00042773
-0.00039997
-0.000373545
-0.000347415
-0.000320827
-0.000294976
-0.000269777
-0.00024465
-0.000219447
-0.000194878
-0.00017052
-0.000146223
-0.000121983
-9.81629e-05
-7.43292e-05
-5.05932e-05
-2.69062e-05
-3.4587e-06
2.0095e-05
4.35221e-05
6.69555e-05
9.02687e-05
0.000113708
0.000136998
0.000160359
0.000183668
0.000207068
0.000230297
0.000253675
0.000277009
0.000300331
0.000323495
0.0003469
0.000370152
0.000393232
0.000416269
0.000439588
0.00046242
0.000484972
0.000507742
0.000530558
0.000552285
0.000573899
0.000595977
0.000617196
0.000636677
0.000656649
0.000676607
0.00069396
0.000709467
0.000725655
0.000739665
0.000743674
0.000753979
0.000757614
0.000754549
0.000750105
0.000742048
0.000724523
0.000693089
0.000658074
0.000622286
0.000559784
0.000479943
0.000414557
0.000323622
0.000203118
0.000101487
-1.00411e-05
-0.000143422
-0.000256698
-0.000369617
-0.000486904
-0.000571707
-0.000655994
-0.000739422
-0.000783229
-0.000821585
-0.000865032
-0.000878959
-0.000880857
-0.000888005
-0.000884709
-0.000868887
-0.000850349
-0.000835056
-0.000814111
-0.00078532
-0.00075885
-0.00073561
-0.000706835
-0.000675679
-0.000648133
-0.000621294
-0.000591096
-0.000561561
-0.000534311
-0.000506743
-0.000477839
-0.000450368
-0.000423875
-0.000397038
-0.000369991
-0.000344177
-0.000318582
-0.000292919
-0.00026745
-0.000242786
-0.000218026
-0.000193432
-0.000169038
-0.000145102
-0.000120995
-9.71492e-05
-7.33692e-05
-4.98565e-05
-2.6172e-05
-2.73998e-06
2.07485e-05
4.40472e-05
6.75215e-05
9.07873e-05
0.000114166
0.000137385
0.000160805
0.00018403
0.000207366
0.000230583
0.000254017
0.00027719
0.000300468
0.000323709
0.000347092
0.000370059
0.000393218
0.000416413
0.000439444
0.000461918
0.000484868
0.000507672
0.00052968
0.000551297
0.000573766
0.000595147
0.000614997
0.000635327
0.000656193
0.000673822
0.000690015
0.00070782
0.00072356
0.000733606
0.000744514
0.000750447
0.000753607
0.000754092
0.000747955
0.000737428
0.000719494
0.000686962
0.000654883
0.000614366
0.000541727
0.000469637
0.000402603
0.000293886
0.000174249
7.12884e-05
-4.66535e-05
-0.000186923
-0.000310668
-0.000413338
-0.000529042
-0.00062693
-0.000695497
-0.00077004
-0.00081988
-0.000839988
-0.000875195
-0.000896187
-0.000884325
-0.000880609
-0.00088077
-0.000865864
-0.000840871
-0.000820164
-0.000802686
-0.00077733
-0.000746505
-0.00072121
-0.000696817
-0.000667395
-0.00063722
-0.000610893
-0.000583804
-0.000554636
-0.000526301
-0.000500042
-0.000472819
-0.000445207
-0.000418561
-0.000392926
-0.000366581
-0.000340601
-0.000315265
-0.000290404
-0.000265126
-0.000240432
-0.000216005
-0.000191837
-0.000167449
-0.000143598
-0.000119735
-9.60793e-05
-7.22824e-05
-4.88909e-05
-2.53337e-05
-1.99024e-06
2.1495e-05
4.46969e-05
6.81239e-05
9.13163e-05
0.00011469
0.000137862
0.000161249
0.000184384
0.00020776
0.000230959
0.000254301
0.000277405
0.000300817
0.000323972
0.000347166
0.000370209
0.000393568
0.00041643
0.000439278
0.000462152
0.000485116
0.000507182
0.000529404
0.000551753
0.000573471
0.000593937
0.000615051
0.000635778
0.000654522
0.000672211
0.000690881
0.000707087
0.000720008
0.000732767
0.000746707
0.000750524
0.000756471
0.000759641
0.000751706
0.00073637
0.000719812
0.000697345
0.000656377
0.000594877
0.000542204
0.000479391
0.000362266
0.000254988
0.000169682
2.05461e-05
-0.000127599
-0.000236701
-0.000375262
-0.000507218
-0.000600415
-0.000709067
-0.000781823
-0.000817878
-0.000878026
-0.000912546
-0.000901609
-0.000908931
-0.000917581
-0.000901894
-0.000876432
-0.000860178
-0.000846642
-0.000818597
-0.000786813
-0.000766097
-0.000742725
-0.000710785
-0.000681557
-0.000657913
-0.000630246
-0.000600011
-0.000572874
-0.000547553
-0.000519484
-0.000491678
-0.000465761
-0.000440137
-0.000413171
-0.000387303
-0.000362201
-0.000337058
-0.000311451
-0.000286887
-0.000262411
-0.000237998
-0.000213481
-0.000189703
-0.00016572
-0.00014195
-0.000118121
-9.47717e-05
-7.11333e-05
-4.7781e-05
-2.43008e-05
-1.15141e-06
2.22977e-05
4.54545e-05
6.88059e-05
9.18948e-05
0.000115287
0.000138393
0.000161722
0.000184829
0.000208239
0.000231333
0.000254659
0.000277813
0.000301217
0.000324221
0.000347507
0.000370659
0.000393872
0.000416595
0.000439759
0.000462677
0.000485255
0.000507417
0.000530256
0.000552271
0.00057341
0.000594663
0.000616494
0.000636027
0.000654551
0.000674221
0.000692862
0.000706877
0.000721163
0.000736727
0.000749629
0.000761411
0.000766593
0.000762628
0.000760576
0.000751926
0.000728478
0.000701985
0.00066312
0.000603129
0.000544935
0.000460493
0.000342959
0.000240413
0.000115414
-4.49701e-05
-0.000193384
-0.000331159
-0.000473879
-0.000624494
-0.000724642
-0.000811058
-0.000896316
-0.000932773
-0.000953968
-0.000986799
-0.000974534
-0.000953921
-0.00094963
-0.000929001
-0.000898637
-0.000869228
-0.000844005
-0.000819752
-0.000787583
-0.000756349
-0.0007307
-0.000703899
-0.000673067
-0.000644825
-0.00061878
-0.000591577
-0.000563033
-0.000536676
-0.000510809
-0.000484326
-0.00045764
-0.000432522
-0.000407168
-0.000381716
-0.000356445
-0.000332167
-0.000307432
-0.000282976
-0.000258679
-0.000234965
-0.000210821
-0.000187122
-0.000163406
-0.000140061
-0.000116368
-9.31259e-05
-6.96994e-05
-4.65698e-05
-2.31429e-05
-9.83373e-08
2.32276e-05
4.62634e-05
6.95923e-05
9.26125e-05
0.000115938
0.000138961
0.00016231
0.000185386
0.00020873
0.000231779
0.000255201
0.00027831
0.000301612
0.00032469
0.000348149
0.000371123
0.000394268
0.000417332
0.000440598
0.000463097
0.000485944
0.000508787
0.000531257
0.000552776
0.000575118
0.000597009
0.000617472
0.000637387
0.000658565
0.000677466
0.000693903
0.000711309
0.000728749
0.000739989
0.000761674
0.000774322
0.000777603
0.000776758
0.000778176
0.000769715
0.000746187
0.000713424
0.00067631
0.000629537
0.000542023
0.00042883
0.00035379
0.00022384
1.43888e-05
-0.000110761
-0.000250181
-0.000471799
-0.00062347
-0.0007465
-0.000889574
-0.000957677
-0.0010227
-0.0010954
-0.0010719
-0.00104721
-0.00107031
-0.00104366
-0.000988116
-0.000950779
-0.000931352
-0.000898643
-0.000847739
-0.000814732
-0.000792295
-0.000756779
-0.000718691
-0.000692618
-0.000666628
-0.000634702
-0.000604937
-0.000580493
-0.000553831
-0.000525594
-0.000499601
-0.000475477
-0.000449437
-0.000423723
-0.000399303
-0.000375361
-0.000350286
-0.000326092
-0.000302323
-0.000278671
-0.000254462
-0.000231087
-0.000207618
-0.000184295
-0.000160677
-0.000137681
-0.000114367
-9.12952e-05
-6.79799e-05
-4.51098e-05
-2.18571e-05
1.09727e-06
2.43211e-05
4.72037e-05
7.0475e-05
9.3427e-05
0.00011668
0.000139646
0.00016299
0.000185995
0.000209321
0.000232399
0.000255815
0.00027885
0.000302246
0.000325411
0.000348801
0.000371774
0.000395195
0.000418313
0.000441435
0.000464194
0.000487519
0.000510216
0.000532629
0.000554969
0.00057782
0.000599228
0.000620246
0.000641793
0.000663
0.000681313
0.000699929
0.000719453
0.00073568
0.000747514
0.000779153
0.000784818
0.000794978
0.000806795
0.000799294
0.00078372
0.00077778
0.000748841
0.000692835
0.000639584
0.000558715
0.000446917
0.000328338
0.000158147
-1.10672e-05
-0.000182775
-0.000400259
-0.000591814
-0.000775819
-0.000917243
-0.00107121
-0.00116659
-0.00118313
-0.00120883
-0.00123027
-0.00118153
-0.00114551
-0.00110459
-0.00105432
-0.00101058
-0.000953622
-0.000909984
-0.000873107
-0.000826874
-0.000784663
-0.000753024
-0.000719584
-0.000683774
-0.000652374
-0.000625122
-0.000595794
-0.00056681
-0.000540528
-0.000515439
-0.000488834
-0.000463511
-0.000439349
-0.000415245
-0.00039038
-0.000366805
-0.000343343
-0.00031982
-0.000296018
-0.000273141
-0.000249899
-0.0002268
-0.000203552
-0.000180881
-0.00015774
-0.000134904
-0.00011186
-8.91985e-05
-6.60988e-05
-4.33524e-05
-2.03084e-05
2.422e-06
2.55513e-05
4.83462e-05
7.14878e-05
9.43238e-05
0.000117553
0.000140475
0.000163737
0.000186697
0.000210075
0.00023313
0.000256481
0.000279579
0.000303107
0.000326204
0.000349585
0.000372832
0.0003964
0.000419337
0.000442714
0.00046606
0.000489312
0.000511821
0.000535217
0.000558313
0.000580508
0.000602381
0.000625694
0.00064734
0.000667271
0.000688455
0.000710545
0.000727599
0.000743664
0.000763536
0.000794766
0.000807947
0.000822996
0.000830069
0.000826914
0.00082272
0.0008116
0.000780555
0.000732483
0.00066125
0.000581386
0.000485269
0.000287661
9.48257e-05
-1.96334e-06
-0.000282726
-0.000570087
-0.000693767
-0.000933837
-0.00114504
-0.00123599
-0.00136409
-0.0014047
-0.00132259
-0.0013505
-0.00134323
-0.00122678
-0.00115722
-0.00111691
-0.00106876
-0.000990301
-0.000923207
-0.000887798
-0.000843473
-0.000787588
-0.000747447
-0.000716085
-0.000678825
-0.000641571
-0.000612693
-0.000584897
-0.000554921
-0.000526823
-0.000502559
-0.00047737
-0.00045175
-0.000427581
-0.000404925
-0.000381109
-0.000357637
-0.000334852
-0.000312561
-0.000289398
-0.000266822
-0.000244334
-0.00022203
-0.000199154
-0.000176835
-0.000154266
-0.000131867
-0.000109059
-8.66989e-05
-6.39487e-05
-4.14248e-05
-1.85451e-05
3.98046e-06
2.69326e-05
4.96099e-05
7.26418e-05
9.53785e-05
0.000118535
0.000141383
0.000164604
0.000187563
0.000210909
0.000233922
0.000257342
0.000280509
0.000303994
0.000327147
0.000350765
0.000374073
0.000397599
0.000420866
0.000444644
0.000467926
0.000491353
0.000514711
0.000538487
0.000561404
0.000584553
0.000607893
0.000631167
0.000653059
0.000675604
0.000698367
0.000719694
0.000739088
0.000760017
0.000779782
0.000815636
0.0008407
0.000852206
0.000853558
0.000870285
0.000876946
0.000843244
0.000815565
0.000799373
0.00071568
0.000596435
0.000491464
0.000324533
0.000113645
-0.000138661
-0.000389658
-0.000540544
-0.000833063
-0.00112709
-0.00135077
-0.00142006
-0.00149267
-0.00158235
-0.00156334
-0.00143809
-0.0013775
-0.00131487
-0.00127105
-0.00117486
-0.00107144
-0.00102781
-0.000970441
-0.000892529
-0.000840056
-0.000801451
-0.000752975
-0.000705026
-0.000670301
-0.000637617
-0.000601605
-0.000569512
-0.000543282
-0.00051572
-0.000487972
-0.000463347
-0.000440499
-0.000416041
-0.000392577
-0.00037052
-0.000348595
-0.000325686
-0.000303831
-0.000282153
-0.000260321
-0.000237994
-0.000216403
-0.000194443
-0.000172487
-0.000150212
-0.000128387
-0.000106064
-8.391e-05
-6.14398e-05
-3.92748e-05
-1.66324e-05
5.76436e-06
2.85135e-05
5.1e-05
7.39291e-05
9.65948e-05
0.000119625
0.000142397
0.000165607
0.00018854
0.000211817
0.000234863
0.000258358
0.000281511
0.000305003
0.000328353
0.000352102
0.000375382
0.000399116
0.000422827
0.000446689
0.000470003
0.000494144
0.00051818
0.000541821
0.000565234
0.000590067
0.000613979
0.000636868
0.000660838
0.000686325
0.000708549
0.000730131
0.000755394
0.000779296
0.000795666
0.00084533
0.000865731
0.000883759
0.000902733
0.000914936
0.000912107
0.000906521
0.000891717
0.000840882
0.000770823
0.000674979
0.000511021
0.000366305
0.000172125
-0.000259387
-0.000449876
-0.000513046
-0.000919078
-0.00114852
-0.00141999
-0.00171151
-0.00174054
-0.00162178
-0.00167051
-0.00153808
-0.0014386
-0.00141539
-0.00131701
-0.00121373
-0.00111201
-0.00104506
-0.000985829
-0.000911273
-0.000849723
-0.000801999
-0.000752663
-0.000704025
-0.000663811
-0.000627782
-0.000592096
-0.000558517
-0.00052967
-0.000502454
-0.000475564
-0.000449956
-0.000426902
-0.000404017
-0.000381233
-0.000359054
-0.000338045
-0.000316524
-0.000295138
-0.000273891
-0.000253085
-0.000231641
-0.000210424
-0.000189036
-0.000167817
-0.000146044
-0.000124534
-0.000102683
-8.09606e-05
-5.87805e-05
-3.68535e-05
-1.45173e-05
7.65291e-06
3.02275e-05
5.25716e-05
7.53347e-05
9.78845e-05
0.000120827
0.000143558
0.000166685
0.000189567
0.000212865
0.000235953
0.000259392
0.000282596
0.000306265
0.000329677
0.000353398
0.000376979
0.000401048
0.000424736
0.000448788
0.000472882
0.000497346
0.000521283
0.000545879
0.000570646
0.000595398
0.000619693
0.000645187
0.000670563
0.000695342
0.000720204
0.000746596
0.000771659
0.000795512
0.00082021
0.000874859
0.000894045
0.000923914
0.000955038
0.000959268
0.000961571
0.00098911
0.000970328
0.000889598
0.000851049
0.000791066
0.000582841
0.000374358
0.000215175
-6.4128e-05
-0.000447252
-0.000856616
-0.000817093
-0.000953915
-0.00130091
-0.00133373
-0.00164218
-0.00174026
-0.00152025
-0.00160186
-0.00160882
-0.00150984
-0.00128893
-0.00121681
-0.00118378
-0.00106293
-0.000970991
-0.000928586
-0.000869777
-0.00079754
-0.000746978
-0.000707573
-0.000660193
-0.00061524
-0.000582487
-0.000550977
-0.000516879
-0.000487565
-0.000463655
-0.000438355
-0.000413069
-0.000390927
-0.000370274
-0.000348167
-0.000326855
-0.000306739
-0.000286618
-0.000265578
-0.000245252
-0.000224967
-0.000204435
-0.000183368
-0.000162742
-0.000141709
-0.000120572
-9.9049e-05
-7.77773e-05
-5.60118e-05
-3.42966e-05
-1.22235e-05
9.67331e-06
3.20354e-05
5.42615e-05
7.68466e-05
9.92659e-05
0.000122121
0.000144798
0.000167827
0.000190697
0.000213998
0.000237078
0.000260509
0.000283831
0.000307572
0.00033102
0.000354894
0.00037876
0.000402939
0.000426779
0.000451308
0.000475872
0.000500463
0.00052492
0.000550573
0.000575926
0.000600924
0.000626699
0.000654117
0.000679963
0.000705595
0.000734096
0.000763315
0.000788181
0.000815248
0.000847831
0.000901793
0.000937121
0.000966857
0.000990723
0.00102099
0.00104616
0.00104314
0.00103171
0.00103206
0.000965123
0.000818924
0.000715321
0.000543
0.000249656
0.00018752
-0.000317817
-0.00111439
-0.000499022
-0.000444082
-0.00102293
-0.000532519
-0.000970569
-0.00119576
-0.00100755
-0.00157332
-0.00168832
-0.00144139
-0.00135758
-0.00124951
-0.0011559
-0.00107327
-0.00100119
-0.000931698
-0.000862293
-0.000804071
-0.000752043
-0.000700234
-0.000653589
-0.000612137
-0.000573336
-0.000538215
-0.000507134
-0.000477386
-0.00044991
-0.00042534
-0.000402199
-0.000379165
-0.000357791
-0.000337455
-0.000317227
-0.000296847
-0.000277336
-0.000257715
-0.000237923
-0.000217893
-0.000198186
-0.00017798
-0.000157683
-0.000137074
-0.000116552
-9.55032e-05
-7.44744e-05
-5.3079e-05
-3.17279e-05
-9.91815e-06
1.18105e-05
3.3925e-05
5.59602e-05
7.84024e-05
0.00010074
0.000123453
0.000146042
0.000169034
0.000191907
0.000215123
0.000238213
0.000261743
0.000285114
0.000308806
0.000332459
0.000356586
0.000380456
0.00040474
0.000429181
0.000454001
0.000478485
0.000503767
0.000529364
0.000554994
0.000580558
0.000607668
0.000634765
0.000661484
0.000689325
0.000719266
0.00074785
0.000776524
0.000808394
0.000841
0.000870111
0.000932541
0.000976026
0.00100968
0.00103775
0.0010832
0.00112034
0.00111711
0.00112784
0.0011574
0.00107419
0.000933548
0.000884777
0.000734815
0.000402519
0.000133528
-0.000233698
-0.000583448
-0.000390831
-0.00027356
-0.000435732
-0.00046937
-0.000592184
-0.000474822
-0.000551114
-0.00106107
-0.00134544
-0.00136076
-0.00142679
-0.00127984
-0.0011214
-0.00108118
-0.00101917
-0.000923968
-0.000859152
-0.00081347
-0.000752938
-0.000691614
-0.000648555
-0.000609902
-0.000565692
-0.000526678
-0.000497399
-0.000468514
-0.000438503
-0.000412964
-0.000391358
-0.000368859
-0.000346695
-0.000326827
-0.000307879
-0.000287968
-0.000268567
-0.00024981
-0.000230915
-0.000211316
-0.000192033
-0.000172582
-0.000152844
-0.000132608
-0.000112507
-9.19745e-05
-7.1273e-05
-5.01734e-05
-2.91272e-05
-7.62549e-06
1.39189e-05
3.58224e-05
5.76822e-05
7.99623e-05
0.000102204
0.000124789
0.000147319
0.000170245
0.000193085
0.000216264
0.000239403
0.000262932
0.000286336
0.000310125
0.000333933
0.000358111
0.000382155
0.000406745
0.000431432
0.000456412
0.000481393
0.000507264
0.000533198
0.000559329
0.000586003
0.000614029
0.000641718
0.00066977
0.000699692
0.000731084
0.000760985
0.000792493
0.000828232
0.000863552
0.000895048
0.000966228
0.00100316
0.00105135
0.00110222
0.00113721
0.00117376
0.00122736
0.0012471
0.00121236
0.00122054
0.00123349
0.00100214
0.000739917
0.00049509
3.1236e-06
-0.000235385
-0.00034406
-0.000507326
-0.000548931
-0.000352949
-0.000467928
-0.000408955
-0.000358555
-0.00039662
-0.000569633
-0.00083923
-0.00120147
-0.00129555
-0.00122102
-0.00117323
-0.00108785
-0.000990212
-0.000927603
-0.000873481
-0.000804089
-0.00074447
-0.000697657
-0.000646623
-0.000597192
-0.000559232
-0.000523899
-0.000487187
-0.000456102
-0.000430626
-0.000404695
-0.000379681
-0.000358334
-0.000338427
-0.000317737
-0.000298165
-0.000279853
-0.000261385
-0.000242364
-0.000223939
-0.000205475
-0.000186592
-0.000167307
-0.000148186
-0.000128602
-0.000108731
-8.85031e-05
-6.82502e-05
-4.75016e-05
-2.6619e-05
-5.38407e-06
1.58988e-05
3.76126e-05
5.93697e-05
8.14699e-05
0.000103579
0.000126078
0.000148575
0.000171391
0.000194192
0.000217394
0.000240555
0.000264015
0.000287516
0.000311459
0.000335285
0.000359479
0.000383895
0.000408722
0.000433354
0.000458699
0.000484491
0.000510437
0.000536401
0.000563878
0.000591671
0.000619209
0.00064797
0.000679186
0.000709535
0.000740043
0.000774604
0.000811078
0.000844418
0.000881379
0.00092537
0.00099365
0.00103779
0.00109081
0.00115055
0.00119798
0.00124065
0.00130766
0.00135723
0.00134817
0.00136232
0.00138115
0.00128308
0.000970471
0.000238288
-0.000323566
-0.000350799
-0.000439829
-0.000483966
-0.000434531
-0.000388604
-0.000462827
-0.000380167
-0.00034874
-0.000369302
-0.000392685
-0.000421936
-0.00073836
-0.00114134
-0.00125535
-0.00116681
-0.00103933
-0.000983741
-0.000943686
-0.000870096
-0.000794687
-0.000743613
-0.000696975
-0.000642211
-0.00059195
-0.000553149
-0.000517181
-0.000480455
-0.00044825
-0.000421759
-0.000396431
-0.00037168
-0.000349664
-0.000329868
-0.000310065
-0.000290707
-0.000272405
-0.000254547
-0.00023623
-0.000218054
-0.000199952
-0.000181664
-0.000162857
-0.000144007
-0.000124831
-0.000105376
-8.54645e-05
-6.54502e-05
-4.50167e-05
-2.43839e-05
-3.36088e-06
1.77534e-05
3.92672e-05
6.08869e-05
8.28518e-05
0.000104877
0.000127266
0.000149696
0.000172454
0.000195255
0.000218404
0.000241561
0.00026507
0.000288638
0.000312559
0.000336507
0.000360898
0.000385398
0.000410288
0.000435325
0.000460992
0.000486841
0.000513207
0.000540038
0.000567786
0.000595817
0.000624717
0.000654725
0.000686016
0.000717728
0.000751103
0.000786782
0.000824016
0.00086153
0.000902497
0.000948061
0.00101524
0.00107636
0.0011275
0.00117886
0.00125396
0.00132594
0.00137107
0.00142849
0.00151093
0.00151791
0.00146347
0.00158954
0.00118524
3.7982e-05
-0.000481243
-0.000439526
-0.000397607
-0.000368818
-0.000412553
-0.000472701
-0.000369156
-0.000358156
-0.000417001
-0.000370006
-0.000261148
-0.000258411
-0.000470074
-0.000948517
-0.00117681
-0.00110005
-0.00105552
-0.00100434
-0.000916465
-0.000849724
-0.000808901
-0.000749327
-0.000681182
-0.000635317
-0.000596626
-0.000548439
-0.000505719
-0.000475624
-0.000445501
-0.000413446
-0.000387573
-0.000366318
-0.000343757
-0.000321893
-0.000303236
-0.000285332
-0.00026644
-0.000248349
-0.000231138
-0.000213493
-0.000195243
-0.000177321
-0.000159217
-0.000140586
-0.000121538
-0.000102481
-8.29532e-05
-6.30713e-05
-4.2837e-05
-2.24757e-05
-1.65698e-06
1.93639e-05
4.07117e-05
6.21784e-05
8.40383e-05
0.000106014
0.000128291
0.000150652
0.000173383
0.00019618
0.000219256
0.000242429
0.000266003
0.000289585
0.000313475
0.000337594
0.000362135
0.000386613
0.000411628
0.000437117
0.000462902
0.00048871
0.000515712
0.000543298
0.000570849
0.000599243
0.000629911
0.000660504
0.000691109
0.000725054
0.000761735
0.000796371
0.000833583
0.000878363
0.000922877
0.000963587
0.00103676
0.00109418
0.00115683
0.0012209
0.00129285
0.00137473
0.00144442
0.00150818
0.00160762
0.00166637
0.00165491
0.00171869
0.000708646
-0.000304424
-0.000332186
-0.000400193
-0.000409466
-0.000402218
-0.000412306
-0.000408132
-0.00036512
-0.000384883
-0.000353009
-0.000321149
-0.000286122
-0.000288952
-0.000299879
-0.000684411
-0.00110089
-0.00107951
-0.00105642
-0.00098085
-0.000909688
-0.000858163
-0.000800977
-0.000739271
-0.000684667
-0.000634972
-0.000587541
-0.000544411
-0.000505411
-0.000469873
-0.000438249
-0.000409869
-0.000383595
-0.000359747
-0.000338134
-0.000317799
-0.000298282
-0.000279871
-0.000262065
-0.000244432
-0.000226864
-0.000209506
-0.000191945
-0.000174158
-0.000156091
-0.000137847
-0.000119163
-0.000100195
-8.0841e-05
-6.12351e-05
-4.11915e-05
-2.09161e-05
-2.60674e-07
2.06011e-05
4.18404e-05
6.32458e-05
8.49955e-05
0.000106885
0.000129109
0.000151454
0.000174114
0.000196873
0.000219969
0.000243166
0.000266674
0.000290303
0.000314321
0.000338444
0.00036294
0.000387677
0.000412893
0.000438264
0.000464231
0.000490677
0.000517701
0.000545109
0.000573631
0.000602914
0.000632957
0.000664125
0.000697209
0.000731247
0.0007668
0.000805009
0.000845771
0.000888035
0.000933975
0.000983926
0.00105214
0.00110456
0.00117673
0.00125703
0.00132121
0.00139414
0.00150088
0.00160353
0.00166844
0.00173361
0.00186834
0.00157746
0.00029905
-0.000406493
-0.000286673
-0.000368015
-0.000427312
-0.000417315
-0.000371786
-0.000357578
-0.000406327
-0.000390252
-0.000306737
-0.000306666
-0.000319995
-0.000256191
-0.000215585
-0.000497176
-0.000974785
-0.00110083
-0.00101309
-0.000949866
-0.000924865
-0.000866981
-0.000784421
-0.000730804
-0.000691909
-0.000634901
-0.000578521
-0.000541303
-0.000506601
-0.000466108
-0.000432433
-0.000407379
-0.000381502
-0.000355319
-0.000333963
-0.000315106
-0.000295195
-0.000276102
-0.000258957
-0.000241868
-0.000224049
-0.00020672
-0.000189658
-0.000172059
-0.000153965
-0.000135929
-0.000117535
-9.86508e-05
-7.93787e-05
-5.99536e-05
-4.00644e-05
-1.98455e-05
7.1332e-07
2.14607e-05
4.26186e-05
6.39863e-05
8.56616e-05
0.00010749
0.000129679
0.00015201
0.000174619
0.000197361
0.000220465
0.000243666
0.000267143
0.000290816
0.000314893
0.000339014
0.000363524
0.000388424
0.000413719
0.000439062
0.000465213
0.000491992
0.000519
0.000546455
0.000575609
0.000605287
0.000635057
0.000666849
0.000701343
0.000735281
0.000770491
0.000811248
0.000854011
0.000894465
0.000941788
0.000998803
0.00105698
0.00112345
0.0011864
0.00125536
0.00134296
0.00143302
0.00151663
0.00161157
0.00171218
0.00185124
0.00200914
0.00144358
0.000343099
-0.000370945
-0.000425326
-0.000378895
-0.000356717
-0.000384613
-0.000404278
-0.000395752
-0.000362941
-0.000336415
-0.000354704
-0.000318324
-0.000278585
-0.000245947
-0.000195424
-0.000440641
-0.000838976
-0.00104589
-0.00101935
-0.00097892
-0.000905835
-0.000843102
-0.00079907
-0.000741136
-0.000676815
-0.000628935
-0.000587517
-0.000540428
-0.000498153
-0.000465892
-0.000434936
-0.000403695
-0.000377555
-0.000355402
-0.000333158
-0.000311938
-0.000293281
-0.000275478
-0.000257298
-0.000239775
-0.000222897
-0.00020576
-0.000188208
-0.000170779
-0.000153133
-0.00013503
-0.000116525
-9.78613e-05
-7.87522e-05
-5.92698e-05
-3.94153e-05
-1.9335e-05
1.17201e-06
2.19375e-05
4.30393e-05
6.43341e-05
8.59939e-05
0.000107833
0.000129973
0.000152261
0.000174888
0.000197649
0.000220691
0.000243884
0.000267443
0.000291106
0.000315084
0.000339318
0.000363968
0.000388711
0.000413969
0.000439702
0.000465854
0.000492236
0.000519673
0.000547791
0.000576265
0.000605688
0.000637092
0.000668987
0.00070159
0.000737154
0.000775349
0.000813232
0.000854255
0.00090159
0.000950103
0.000998521
0.00105698
0.00112345
0.0011864
0.00125536
0.00134296
0.00143302
0.00151663
0.00161157
0.00171218
0.00185124
0.00200914
0.00144358
0.000343099
-0.000370945
-0.000425326
-0.000378895
-0.000356717
-0.000384613
-0.000404278
-0.000395752
-0.000362941
-0.000336415
-0.000354704
-0.000318324
-0.000278585
-0.000245947
-0.000195424
-0.000440641
-0.000838976
-0.00104589
-0.00101935
-0.00097892
-0.000905835
-0.000843102
-0.00079907
-0.000741136
-0.000676815
-0.000628935
-0.000587517
-0.000540428
-0.000498153
-0.000465892
-0.000434936
-0.000403695
-0.000377555
-0.000355402
-0.000333158
-0.000311938
-0.000293281
-0.000275478
-0.000257298
-0.000239775
-0.000222897
-0.00020576
-0.000188208
-0.000170779
-0.000153133
-0.00013503
-0.000116525
-9.78613e-05
-7.87522e-05
-5.92698e-05
-3.94153e-05
-1.9335e-05
1.17201e-06
2.19375e-05
4.30393e-05
6.43341e-05
8.59939e-05
0.000107833
0.000129973
0.000152261
0.000174888
0.000197649
0.000220691
0.000243884
0.000267443
0.000291106
0.000315084
0.000339318
0.000363968
0.000388711
0.000413969
0.000439702
0.000465854
0.000492236
0.000519673
0.000547791
0.000576265
0.000605688
0.000637092
0.000668987
0.00070159
0.000737154
0.000775349
0.000813232
0.000854255
0.00090159
0.000950103
0.000998521
0.00105214
0.00110456
0.00117673
0.00125703
0.00132121
0.00139414
0.00150088
0.00160353
0.00166844
0.00173361
0.00186834
0.00157746
0.00029905
-0.000406493
-0.000286673
-0.000368015
-0.000427312
-0.000417315
-0.000371786
-0.000357578
-0.000406327
-0.000390252
-0.000306737
-0.000306666
-0.000319995
-0.000256191
-0.000215585
-0.000497176
-0.000974785
-0.00110083
-0.00101309
-0.000949866
-0.000924865
-0.000866981
-0.000784421
-0.000730804
-0.000691909
-0.000634901
-0.000578521
-0.000541303
-0.000506601
-0.000466108
-0.000432433
-0.000407379
-0.000381502
-0.000355319
-0.000333963
-0.000315106
-0.000295195
-0.000276102
-0.000258957
-0.000241868
-0.000224049
-0.00020672
-0.000189658
-0.000172059
-0.000153965
-0.000135929
-0.000117535
-9.86508e-05
-7.93787e-05
-5.99536e-05
-4.00644e-05
-1.98455e-05
7.1332e-07
2.14607e-05
4.26186e-05
6.39863e-05
8.56616e-05
0.00010749
0.000129679
0.00015201
0.000174619
0.000197361
0.000220465
0.000243666
0.000267143
0.000290816
0.000314893
0.000339014
0.000363524
0.000388424
0.000413719
0.000439062