# vtk DataFile Version 3.0
fluid_state
ASCII
DATASET RECTILINEAR_GRID
DIMENSIONS 100 40 1
X_COORDINATES 100 float
0.5 1.5 2.5 3.5 4.5 5.5 6.5 7.5 8.5 9.5 10.5 11.5 12.5 13.5 14.5 15.5 16.5 17.5 18.5 19.5 20.5 21.5 22.5 23.5 24.5 25.5 26.5 27.5 28.5 29.5 30.5 31.5 32.5 33.5 34.5 35.5 36.5 37.5 38.5 39.5 40.5 41.5 42.5 43.5 44.5 45.5 46.5 47.5 48.5 49.5 50.5 51.5 52.5 53.5 54.5 55.5 56.5 57.5 58.5 59.5 60.5 61.5 62.5 63.5 64.5 65.5 66.5 67.5 68.5 69.5 70.5 71.5 72.5 73.5 74.5 75.5 76.5 77.5 78.5 79.5 80.5 81.5 82.5 83.5 84.5 85.5 86.5 87.5 88.5 89.5 90.5 91.5 92.5 93.5 94.5 95.5 96.5 97.5 98.5 99.5 
Y_COORDINATES 40 float
0.5 1.5 2.5 3.5 4.5 5.5 6.5 7.5 8.5 9.5 10.5 11.5 12.5 13.5 14.5 15.5 16.5 17.5 18.5 19.5 20.5 21.5 22.5 23.5 24.5 25.5 26.5 27.5 28.5 29.5 30.5 31.5 32.5 33.5 34.5 35.5 36.5 37.5 38.5 39.5 
Z_COORDINATES 1 float
0
POINT_DATA 4000
SCALARS density_difference float 1
LOOKUP_TABLE default
0.000384767
0.000680944
0.000977559
0.00127733
0.00156587
0.00184514
0.00212841
0.00240414
0.00266333
0.00291895
0.00316983
0.00340544
0.00362743
0.00384021
0.0040399
0.0042209
0.00438708
0.00453541
0.00466233
0.00477222
0.00485988
0.00492325
0.00496617
0.00498545
0.00498275
0.00495692
0.00490389
0.0048313
0.00473962
0.0046229
0.00448216
0.00432784
0.00416104
0.0039688
0.00376132
0.003553
0.00332864
0.00308528
0.00284112
0.00259304
0.00232927
0.00205847
0.00178816
0.00151051
0.00122391
0.000935857
0.000646493
0.000351815
5.45839e-05
-0.000241856
-0.000538647
-0.000836028
-0.00113119
-0.00142308
-0.00171171
-0.00199584
-0.00227359
-0.00254434
-0.00280708
-0.00306047
-0.00330314
-0.0035343
-0.0037526
-0.00395701
-0.00414634
-0.00431977
-0.00447615
-0.00461479
-0.00473477
-0.00483559
-0.00491653
-0.00497733
-0.00501755
-0.00503715
-0.00503594
-0.00501413
-0.00497182
-0.00490939
-0.00482711
-0.00472564
-0.00460548
-0.00446723
-0.00431159
-0.00413958
-0.00395178
-0.00374892
-0.00353229
-0.00330299
-0.00306129
-0.0028084
-0.0025464
-0.00227561
-0.00199593
-0.00171012
-0.00142038
-0.00112479
-0.000824174
-0.000524072
-0.000224034
8.08211e-05
0.000378618
0.000675953
0.000977226
0.00126977
0.00155203
0.00183918
0.00212268
0.0023878
0.00264883
0.00291049
0.00315682
0.00338774
0.00361115
0.00382712
0.00402435
0.00420134
0.00436748
0.00451722
0.00464487
0.00474917
0.00483343
0.00490073
0.00494377
0.0049569
0.00494982
0.00492953
0.00487856
0.00479883
0.00470643
0.00459688
0.00446067
0.00430063
0.00413374
0.00395537
0.00374921
0.00353267
0.00331719
0.00308416
0.00283453
0.00258506
0.00233112
0.00206271
0.00178837
0.00151374
0.00123274
0.000943971
0.000654005
0.000362704
6.77918e-05
-0.000229113
-0.000524573
-0.00081968
-0.0011137
-0.00140512
-0.00169198
-0.0019747
-0.00225136
-0.00252112
-0.00278225
-0.00303461
-0.00327606
-0.0035062
-0.00372319
-0.00392675
-0.00411497
-0.00428764
-0.00444308
-0.00458117
-0.00470045
-0.00480092
-0.00488143
-0.00494214
-0.00498221
-0.00500195
-0.00500088
-0.00497949
-0.0049376
-0.00487577
-0.00479424
-0.00469366
-0.00457437
-0.00443721
-0.00428291
-0.00411211
-0.00392555
-0.00372438
-0.00350957
-0.00328149
-0.00304147
-0.00279107
-0.00253084
-0.00226088
-0.00198381
-0.00170115
-0.00141191
-0.00111687
-0.000820819
-0.000523343
-0.000220985
8.18578e-05
0.000375555
0.000676695
0.00096979
0.0012558
0.00154684
0.00183389
0.00210335
0.00237176
0.00264261
0.00289493
0.00313436
0.00337336
0.0036003
0.00380819
0.00400296
0.00418889
0.00435367
0.00449749
0.00462696
0.00473335
0.00481801
0.00488075
0.0049191
0.00493973
0.0049329
0.0048999
0.00485303
0.00478299
0.00468495
0.00456764
0.00444046
0.00429158
0.00411475
0.0039334
0.00374511
0.00353017
0.0033044
0.00308026
0.00284202
0.00258757
0.00233211
0.00207303
0.00180197
0.00152431
0.00124625
0.00096267
0.000673095
0.000381763
9.00368e-05
-0.000204628
-0.000499648
-0.000793438
-0.00108526
-0.00137551
-0.0016614
-0.0019427
-0.00221789
-0.00248668
-0.00274667
-0.00299788
-0.00323824
-0.0034675
-0.00368353
-0.00388628
-0.00407372
-0.00424578
-0.00440064
-0.00453833
-0.00465726
-0.00475756
-0.00483798
-0.00489878
-0.00493903
-0.00495912
-0.00495854
-0.00493775
-0.00489659
-0.00483566
-0.00475515
-0.00465564
-0.00453765
-0.0044019
-0.00424907
-0.00407975
-0.00389506
-0.00369576
-0.00348262
-0.00325645
-0.00301897
-0.00277048
-0.00251177
-0.00224449
-0.00197046
-0.00168878
-0.00140095
-0.00111023
-0.000816707
-0.000517831
-0.000218321
7.77508e-05
0.000376626
0.000670762
0.000958606
0.00125061
0.00154078
0.00181564
0.00208706
0.0023644
0.00262564
0.00287162
0.00311971
0.00335934
0.00358115
0.00378864
0.00398775
0.00417567
0.00433868
0.00448388
0.00461191
0.00472157
0.00480815
0.00486639
0.00490246
0.00492356
0.00492119
0.00488339
0.00483127
0.00476553
0.00467238
0.00455374
0.00441921
0.00427789
0.00411242
0.00392176
0.00373159
0.0035324
0.00330847
0.00307687
0.00284604
0.00260141
0.00234362
0.002084
0.00182056
0.00154654
0.00126733
0.000986517
0.000701536
0.000411307
0.000120284
-0.000171485
-0.000464257
-0.000757252
-0.0010476
-0.00133584
-0.0016205
-0.00190081
-0.00217463
-0.00244215
-0.00270122
-0.00295148
-0.00319085
-0.00341929
-0.00363462
-0.00383671
-0.00402359
-0.00419521
-0.00434975
-0.00448721
-0.00460605
-0.00470638
-0.00478699
-0.00484807
-0.00488877
-0.00490944
-0.00490958
-0.00488961
-0.00484948
-0.00478967
-0.0047104
-0.00461226
-0.00449586
-0.00436171
-0.00421057
-0.0040432
-0.00386061
-0.00366317
-0.00345217
-0.00322857
-0.00299331
-0.00274668
-0.00249076
-0.00222645
-0.00195403
-0.00167426
-0.00139039
-0.00110214
-0.000808674
-0.000512941
-0.000218898
7.73963e-05
0.00037256
0.000661302
0.000954619
0.00124565
0.00152218
0.00179817
0.0020813
0.0023472
0.00259639
0.00285656
0.00310808
0.00333393
0.00355575
0.00377536
0.00397693
0.00415339
0.00432144
0.00447837
0.00460257
0.00470937
0.00479414
0.00485746
0.00490046
0.00490577
0.00489896
0.0048785
0.0048213
0.00474219
0.0046531
0.00454947
0.00441136
0.00425543
0.00410423
0.00392812
0.00372434
0.00352387
0.00331818
0.00308836
0.00285007
0.00261325
0.00236534
0.0021041
0.00184079
0.00157404
0.00129858
0.00101749
0.000735412
0.000449474
0.000159988
-0.000130652
-0.000420706
-0.000711472
-0.00100068
-0.00128743
-0.00157025
-0.00184925
-0.002122
-0.00238829
-0.00264621
-0.00289555
-0.00313409
-0.00336172
-0.00357638
-0.00377792
-0.00396437
-0.00413565
-0.00428999
-0.00442738
-0.00454631
-0.00464684
-0.00472781
-0.00478938
-0.00483076
-0.0048522
-0.00485331
-0.00483444
-0.00479558
-0.00473712
-0.00465943
-0.00456298
-0.0044484
-0.00431613
-0.00416717
-0.00400201
-0.00382161
-0.00362655
-0.00341829
-0.00319712
-0.00296418
-0.00272051
-0.00246768
-0.00220539
-0.00193537
-0.00165948
-0.00137832
-0.00109084
-0.000800781
-0.000510246
-0.0002166
8.03602e-05
0.000367048
0.000659034
0.000948755
0.00122876
0.00150726
0.00179131
0.00206193
0.00231703
0.00258158
0.00284207
0.00307573
0.00330865
0.00354047
0.00375569
0.00395408
0.00413606
0.0043122
0.00446509
0.0045955
0.00470329
0.0047863
0.00485065
0.00489223
0.00490151
0.00488315
0.00486139
0.00481082
0.00473351
0.00463695
0.00452814
0.00440868
0.00425401
0.00408588
0.00392259
0.00373499
0.00352455
0.00331643
0.00310209
0.00286853
0.00262687
0.00238449
0.00213239
0.00186997
0.00160386
0.00133432
0.00105739
0.000776231
0.000492992
0.000207362
-8.12908e-05
-0.000369847
-0.000658117
-0.000945174
-0.00123058
-0.00151188
-0.0017892
-0.00206069
-0.0023259
-0.0025827
-0.00283104
-0.0030688
-0.00329571
-0.00350977
-0.00371083
-0.00389696
-0.00406802
-0.00422231
-0.00435975
-0.00447892
-0.0045798
-0.00466133
-0.00472355
-0.00476581
-0.00478822
-0.00479053
-0.00477296
-0.00473561
-0.00467875
-0.00460292
-0.00450837
-0.00439589
-0.00426587
-0.00411935
-0.00395657
-0.0037788
-0.00358657
-0.00338106
-0.00316251
-0.00293272
-0.00269217
-0.00244185
-0.00218239
-0.00191612
-0.00164294
-0.00136356
-0.00107981
-0.000794069
-0.000504373
-0.000212118
7.84158e-05
0.000365976
0.000654613
0.000934436
0.00121484
0.0015002
0.0017728
0.00202998
0.00229991
0.0025694
0.00280481
0.00304131
0.00329451
0.00351865
0.00372306
0.00392745
0.00413145
0.0043045
0.00444411
0.00459149
0.00470423
0.00479153
0.00484965
0.00487084
0.00490302
0.00488858
0.00483754
0.00478914
0.00472635
0.00463405
0.00450677
0.00438656
0.00426047
0.00408728
0.00390607
0.00373584
0.00354093
0.00332303
0.00310824
0.0028893
0.00265184
0.00240663
0.00216046
0.00190581
0.00164109
0.00137333
0.00110185
0.000824356
0.000542631
0.000259868
-2.5308e-05
-0.000311863
-0.000598406
-0.000883158
-0.00116654
-0.00144646
-0.00172231
-0.00199233
-0.00225632
-0.00251217
-0.00275952
-0.00299648
-0.0032227
-0.00343629
-0.0036369
-0.00382282
-0.00399372
-0.00414811
-0.00428569
-0.00440526
-0.0045066
-0.00458886
-0.00465187
-0.00469518
-0.00471873
-0.00472244
-0.00470633
-0.00467071
-0.00461569
-0.0045419
-0.00444949
-0.00433942
-0.00421188
-0.00406795
-0.00390792
-0.00373315
-0.00354381
-0.00334122
-0.00312592
-0.00289944
-0.00266173
-0.00241448
-0.00215872
-0.00189554
-0.00162466
-0.00134886
-0.00106925
-0.000785337
-0.000497493
-0.000210745
7.59496e-05
0.000362404
0.000643253
0.000924629
0.00120739
0.00147982
0.0017436
0.00201501
0.00228419
0.00252521
0.00276837
0.00303066
0.00326004
0.00347324
0.00370143
0.0039133
0.00411228
0.00428306
0.00444837
0.00459211
0.0047061
0.00479803
0.0048584
0.00488048
0.00488591
0.00488413
0.00483625
0.00477754
0.00469842
0.00461774
0.00451612
0.00436953
0.00423458
0.00409649
0.00391661
0.00372704
0.00354457
0.0033445
0.00312485
0.00290366
0.00267819
0.00243931
0.00219189
0.00194157
0.00168413
0.00141884
0.00114916
0.000876298
0.000598393
0.00031743
3.48577e-05
-0.000248588
-0.000532982
-0.000816074
-0.00109735
-0.00137548
-0.0016499
-0.00191865
-0.0021813
-0.00243615
-0.00268258
-0.00291883
-0.00314437
-0.00335754
-0.00355778
-0.00374358
-0.0039144
-0.00406898
-0.0042068
-0.00432689
-0.0044288
-0.0045119
-0.00457584
-0.00462034
-0.00464517
-0.00465041
-0.00463594
-0.00460221
-0.0045492
-0.00447763
-0.00438759
-0.00428008
-0.00415519
-0.00401412
-0.00385711
-0.00368538
-0.00349913
-0.0032999
-0.00308795
-0.00286454
-0.00263014
-0.0023866
-0.00213392
-0.00187347
-0.00160639
-0.0013344
-0.00105678
-0.000775676
-0.000493112
-0.000209226
7.75107e-05
0.000355735
0.000635483
0.000916345
0.00118978
0.00145498
0.00172637
0.00199639
0.00224162
0.00248418
0.00275371
0.00299391
0.00320007
0.00344372
0.00368237
0.00388708
0.00407538
0.00426867
0.00447685
0.00459386
0.00471839
0.00480478
0.00486349
0.00492842
0.00487925
0.00485948
0.00483816
0.00477431
0.00468433
0.00458173
0.00450551
0.00438359
0.00421774
0.00407756
0.00392973
0.00374096
0.00354586
0.00335674
0.00315038
0.00292741
0.0027029
0.00247304
0.00223051
0.00198116
0.00172827
0.0014684
0.00120136
0.000930996
0.000657099
0.000379246
9.88124e-05
-0.000182167
-0.000463877
-0.000745057
-0.00102458
-0.00130094
-0.00157371
-0.00184124
-0.00210266
-0.00235649
-0.00260198
-0.00283758
-0.00306248
-0.00327527
-0.00347517
-0.00366092
-0.00383172
-0.00398655
-0.00412468
-0.00424536
-0.00434793
-0.00443195
-0.00449692
-0.0045427
-0.00456891
-0.00457578
-0.00456309
-0.00453135
-0.00448047
-0.00441127
-0.00432374
-0.0042189
-0.00409685
-0.00395881
-0.00380488
-0.00363631
-0.00345343
-0.00325759
-0.00304891
-0.00282888
-0.0025981
-0.00235787
-0.00210827
-0.00185139
-0.00158795
-0.00131872
-0.00104414
-0.000767276
-0.000487974
-0.000205903
7.65941e-05
0.000351681
0.000629272
0.000900568
0.00116919
0.00144021
0.00170468
0.00195299
0.00220395
0.0024693
0.0027064
0.00291482
0.0031739
0.0034259
0.00361764
0.00384096
0.00406427
0.00427796
0.00445515
0.00460734
0.00475793
0.00484962
0.00489238
0.0049331
0.00492054
0.004857
0.00480956
0.00474402
0.0046987
0.00458569
0.00445064
0.00436809
0.00424359
0.00407092
0.00391409
0.00375668
0.00356843
0.00336766
0.00316894
0.00295927
0.00273481
0.00250524
0.00227083
0.00202657
0.00177463
0.00151858
0.00125681
0.000988938
0.000717231
0.000442907
0.000165521
-0.000113612
-0.000393076
-0.000671932
-0.000949588
-0.0012245
-0.00149564
-0.00176182
-0.00202206
-0.00227496
-0.00251951
-0.00275446
-0.00297876
-0.00319123
-0.00339082
-0.00357653
-0.00374736
-0.00390249
-0.00404098
-0.00416227
-0.00426556
-0.00435055
-0.00441659
-0.00446369
-0.00449136
-0.00449993
-0.00448907
-0.00445939
-0.00441075
-0.00434396
-0.00425902
-0.00415695
-0.00403785
-0.00390283
-0.00375205
-0.0035868
-0.00340728
-0.0032147
-0.00300944
-0.00279301
-0.00256552
-0.00232838
-0.00208246
-0.00182919
-0.00156846
-0.00130236
-0.00103216
-0.000758388
-0.000481033
-0.000203596
7.34679e-05
0.000346806
0.00061844
0.000886261
0.00115333
0.00141668
0.00167023
0.00192011
0.00217636
0.00241839
0.00263306
0.00287959
0.00314084
0.00333056
0.00355491
0.00382387
0.00405468
0.00426161
0.00438144
0.00465654
0.00482343
0.00494339
0.0049884
0.00488746
0.00495391
0.00488378
0.00480524
0.00471745
0.0046448
0.0045967
0.00445839
0.00432513
0.0042301
0.00409029
0.00391926
0.00375648
0.00358592
0.00339262
0.00319139
0.00298688
0.0027704
0.00254323
0.00231122
0.00207226
0.00182442
0.00157058
0.00131218
0.00104805
0.000779051
0.000507001
0.000232431
-4.42542e-05
-0.000321684
-0.000598677
-0.000874376
-0.00114771
-0.00141739
-0.00168233
-0.00194135
-0.00219333
-0.00243701
-0.00267133
-0.00289504
-0.00310718
-0.00330651
-0.0034922
-0.00366307
-0.00381849
-0.00395737
-0.00407928
-0.0041833
-0.00426926
-0.0043364
-0.00438482
-0.00441398
-0.00442423
-0.00441524
-0.00438762
-0.00434122
-0.00427685
-0.00419452
-0.0040952
-0.00397901
-0.00384699
-0.0036994
-0.00353736
-0.00336109
-0.00317185
-0.00297003
-0.00275685
-0.00253265
-0.00229898
-0.00205641
-0.00180615
-0.00154883
-0.00128636
-0.00101925
-0.000748509
-0.00047527
-0.00020169
7.26281e-05
0.000340693
0.000607629
0.000873919
0.00113446
0.00138711
0.00164003
0.00189149
0.00212639
0.00234839
0.00259281
0.00284244
0.00301704
0.00323199
0.0035485
0.00376136
0.00396792
0.00421656
0.00441614
0.00421326
0.00404631
0.0041495
0.004556
0.00494063
0.00488548
0.00484981
0.00482081
0.00476842
0.00458405
0.00450855
0.00448162
0.00434035
0.00419466
0.00408279
0.00394211
0.00376837
0.00359494
0.00341775
0.00322182
0.00301492
0.00280462
0.00258473
0.00235379
0.00211688
0.00187457
0.00162405
0.00136721
0.00110617
0.000840712
0.000570699
0.000298144
2.39454e-05
-0.000251297
-0.000526711
-0.000800672
-0.00107239
-0.00134066
-0.00160447
-0.00186234
-0.0021134
-0.00235624
-0.00258996
-0.00281312
-0.00302491
-0.00322399
-0.00340965
-0.00358058
-0.00373625
-0.00387552
-0.00399803
-0.00410278
-0.00418966
-0.0042579
-0.00430759
-0.00433821
-0.0043501
-0.00434295
-0.00431733
-0.00427313
-0.00421112
-0.00413134
-0.00403467
-0.00392129
-0.00379221
-0.00364766
-0.00348864
-0.00331555
-0.00312955
-0.00293089
-0.00272077
-0.00249992
-0.00226955
-0.00202991
-0.00178272
-0.00152909
-0.00126981
-0.00100534
-0.00073837
-0.000469556
-0.000198684
7.25184e-05
0.000336249
0.000598714
0.000857877
0.00111389
0.00136389
0.00160711
0.00184521
0.00207753
0.00230259
0.0025273
0.00272866
0.00293113
0.00320906
0.00339339
0.00357436
0.00360412
0.0033645
0.00303298
0.0026775
0.00251384
0.00256776
0.00297404
0.00347107
0.00389512
0.00446294
0.00470191
0.00467638
0.00464767
0.00448112
0.00440392
0.00433602
0.00421107
0.00407676
0.00394054
0.00378609
0.00361635
0.00343864
0.00324969
0.00304858
0.00283987
0.00262327
0.00239728
0.00216306
0.00192273
0.00167553
0.00142193
0.0011629
0.000899628
0.000632192
0.000361882
8.93924e-05
-0.000183987
-0.000457585
-0.000729954
-0.00100037
-0.0012673
-0.00152992
-0.00178676
-0.00203699
-0.00227902
-0.00251212
-0.00273477
-0.00294625
-0.00314507
-0.00333066
-0.00350166
-0.00365756
-0.00379719
-0.00392023
-0.00402568
-0.00411342
-0.00418269
-0.00423359
-0.00426559
-0.00427902
-0.00427361
-0.00424988
-0.00420776
-0.00414795
-0.00407054
-0.00397636
-0.00386564
-0.00373924
-0.0035975
-0.00344138
-0.00327126
-0.0030881
-0.00289246
-0.00268543
-0.00246755
-0.00223999
-0.0020036
-0.00175962
-0.00150876
-0.00125252
-0.000991893
-0.000728122
-0.000462153
-0.000195562
7.10284e-05
0.00033217
0.000590654
0.000843625
0.00109315
0.00133839
0.00157472
0.00180217
0.0020264
0.00224305
0.00244226
0.0026282
0.00286851
0.00306975
0.00317579
0.00307995
0.00255552
0.00203866
0.00171968
0.00167635
0.0016423
0.00170443
0.00190305
0.00206023
0.00249231
0.00327682
0.00415806
0.00449535
0.00457238
0.00451819
0.00436764
0.00429598
0.00421252
0.00408297
0.003943
0.00380143
0.00363917
0.00346002
0.00327629
0.00308306
0.00287582
0.00265992
0.00243878
0.00220836
0.00196915
0.00172407
0.00147378
0.00121684
0.000955149
0.000689874
0.000421683
0.000150755
-0.000121024
-0.000393013
-0.000663951
-0.000933131
-0.00119885
-0.00146042
-0.00171629
-0.0019657
-0.00220703
-0.00243954
-0.0026617
-0.00287284
-0.00307145
-0.00325694
-0.00342798
-0.00358407
-0.00372403
-0.00384753
-0.00395362
-0.00404214
-0.00411235
-0.00416434
-0.00419763
-0.00421247
-0.00420865
-0.00418663
-0.00414642
-0.0040886
-0.00401336
-0.00392143
-0.00381309
-0.00368911
-0.00354992
-0.00339637
-0.00322888
-0.00304834
-0.00285543
-0.00265112
-0.00243593
-0.00221109
-0.00197764
-0.00173649
-0.00148836
-0.00123516
-0.000977986
-0.000717223
-0.000454261
-0.000191715
7.04109e-05
0.000327877
0.000582287
0.000832297
0.00107406
0.00131145
0.00154488
0.00176266
0.00196735
0.00217647
0.00237181
0.00253473
0.00271942
0.00287715
0.00277127
0.00219339
0.00170218
0.00158673
0.00170995
0.00169751
0.00176662
0.00182997
0.00185818
0.00199864
0.00200999
0.00229102
0.00308823
0.00407224
0.0044247
0.0044239
0.00437012
0.0042925
0.00419364
0.00408015
0.00395582
0.00381505
0.00365675
0.00348536
0.00330412
0.0031119
0.00290955
0.0026976
0.00247721
0.00224861
0.00201292
0.00176992
0.0015207
0.00126579
0.00100642
0.000742592
0.00047571
0.000206499
-6.37023e-05
-0.000334532
-0.000604292
-0.000872212
-0.00113686
-0.00139757
-0.00165258
-0.00190119
-0.00214188
-0.00237387
-0.00259559
-0.00280636
-0.00300478
-0.00319017
-0.00336122
-0.00351745
-0.0036577
-0.0037816
-0.00388825
-0.00397743
-0.0040485
-0.00410143
-0.00413584
-0.00415191
-0.0041495
-0.00412898
-0.00409041
-0.00403434
-0.00396099
-0.00387097
-0.00376468
-0.00364282
-0.00350583
-0.00335443
-0.00318925
-0.0030111
-0.00282053
-0.00261847
-0.0024059
-0.00218365
-0.00195249
-0.00171387
-0.00146893
-0.00121838
-0.000963476
-0.000706224
-0.000447209
-0.000187036
7.18024e-05
0.000326032
0.000575087
0.000820629
0.00105987
0.00128934
0.00150971
0.00172456
0.00192748
0.00210824
0.00227256
0.00245102
0.00259503
0.00253671
0.00208928
0.00167835
0.00165739
0.00163993
0.00166472
0.00175064
0.00183443
0.00191629
0.00194087
0.00193716
0.00204285
0.00220928
0.00236822
0.00319671
0.00411246
0.00437818
0.004351
0.00426034
0.00418039
0.00409214
0.00396854
0.00382225
0.00367261
0.00351083
0.00333031
0.00313803
0.00293984
0.00273146
0.00251205
0.00228488
0.00205161
0.00181034
0.0015624
0.00130911
0.0010513
0.000788756
0.000523225
0.000255325
-1.37563e-05
-0.000283446
-0.000552103
-0.000819083
-0.00108287
-0.00134269
-0.00159698
-0.00184495
-0.00208506
-0.00231654
-0.00253789
-0.00274836
-0.00294656
-0.00313184
-0.00330292
-0.00345923
-0.00359972
-0.00372395
-0.00383106
-0.00392081
-0.00399258
-0.00404632
-0.00408168
-0.00409879
-0.00409756
-0.0040783
-0.00404112
-0.00398649
-0.00391469
-0.00382629
-0.0037217
-0.00360156
-0.00346638
-0.00331683
-0.00315355
-0.00297729
-0.00278873
-0.00258873
-0.00237822
-0.00215808
-0.00192922
-0.00169287
-0.00145024
-0.00120222
-0.000949993
-0.000695326
-0.000439298
-0.000182458
7.33988e-05
0.000325648
0.000570814
0.000810065
0.00104591
0.0012717
0.00148309
0.00168981
0.00188393
0.00204663
0.00219832
0.00236996
0.00245416
0.00217514
0.00175739
0.0016148
0.00161877
0.00167601
0.00174303
0.00182655
0.00183084
0.00188426
0.0020054
0.00205016
0.00210064
0.00214322
0.00222767
0.0026664
0.00368376
0.00433158
0.00432712
0.00425145
0.00417618
0.00408785
0.00397401
0.00383892
0.0036905
0.00352677
0.00335102
0.00316461
0.00296658
0.00275788
0.00254167
0.00231708
0.00208395
0.00184359
0.00159776
0.00134574
0.00108849
0.000827148
0.000562997
0.000295975
2.76549e-05
-0.000240987
-0.000508715
-0.000774992
-0.00103809
-0.00129714
-0.00155082
-0.00179828
-0.00203792
-0.00226894
-0.00248998
-0.00270019
-0.00289822
-0.00308337
-0.00325446
-0.00341084
-0.0035515
-0.00367598
-0.00378347
-0.00387366
-0.003946
-0.00400038
-0.0040365
-0.00405444
-0.00405414
-0.00403587
-0.00399979
-0.00394628
-0.0038757
-0.00378856
-0.00368531
-0.00356649
-0.00343272
-0.00328466
-0.00312288
-0.00294808
-0.0027612
-0.00256294
-0.00235401
-0.00213557
-0.00190886
-0.00167443
-0.00143341
-0.00118772
-0.000938299
-0.000685357
-0.000431258
-0.000178254
7.43696e-05
0.000323972
0.000567706
0.000804957
0.00103356
0.00125534
0.00146734
0.00166046
0.00183723
0.00200876
0.00215492
0.0022536
0.00232398
0.00197714
0.0016749
0.00163137
0.00162709
0.00173021
0.00177531
0.00182002
0.00188708
0.00193788
0.00199782
0.00208574
0.00214358
0.0021429
0.00229355
0.00243888
0.00332145
0.0042649
0.00425984
0.00425798
0.00419148
0.00408175
0.00397379
0.00385251
0.00370482
0.00354086
0.00336865
0.00318424
0.00298699
0.00278012
0.00256529
0.00234124
0.00210924
0.00187029
0.0016251
0.0013737
0.00111759
0.000857188
0.000593524
0.00032728
5.98774e-05
-0.000208154
-0.000475375
-0.000740924
-0.00100341
-0.00126203
-0.00151525
-0.00176221
-0.0020015
-0.00223222
-0.00245298
-0.00266295
-0.00286087
-0.00304593
-0.003217
-0.00337342
-0.00351422
-0.00363888
-0.00374665
-0.00383717
-0.00390994
-0.0039648
-0.00400148
-0.00402003
-0.00402042
-0.00400289
-0.0039676
-0.00391493
-0.00384525
-0.00375901
-0.00365671
-0.00353891
-0.00340618
-0.00325913
-0.00309847
-0.00292489
-0.00273914
-0.00254205
-0.00233457
-0.00211755
-0.00189204
-0.00165915
-0.00142007
-0.00117578
-0.000927738
-0.000677228
-0.000425344
-0.000173421
7.66352e-05
0.000323038
0.00056505
0.000801778
0.00102689
0.00124322
0.00145244
0.00164274
0.00181291
0.00197208
0.00210254
0.00218475
0.00214665
0.00185629
0.00163937
0.0016223
0.00169698
0.00176535
0.0017795
0.00181615
0.00191997
0.00198427
0.00200282
0.00208061
0.00217691
0.00222267
0.002271
0.00237348
0.00304556
0.00400416
0.00427271
0.00423097
0.00417638
0.00409267
0.00398429
0.00385533
0.0037108
0.00355418
0.00338244
0.00319607
0.00300072
0.00279649
0.00258157
0.00235736
0.00212673
0.00188881
0.00164368
0.00139275
0.00113754
0.000877671
0.000614298
0.000348627
8.18137e-05
-0.000185819
-0.000452677
-0.000717748
-0.000979839
-0.00123814
-0.00149105
-0.00173768
-0.00197672
-0.00220723
-0.00242781
-0.00263762
-0.00283544
-0.00302044
-0.00319149
-0.00334794
-0.00348883
-0.00361361
-0.00372155
-0.0038123
-0.00388534
-0.00394051
-0.00397757
-0.00399652
-0.00399737
-0.00398031
-0.00394553
-0.00389341
-0.0038243
-0.00373865
-0.00363696
-0.00351982
-0.00338776
-0.00324137
-0.00308146
-0.00290867
-0.00272369
-0.00252739
-0.0023209
-0.00210484
-0.00188015
-0.00164834
-0.00141061
-0.00116729
-0.000920159
-0.000671353
-0.00042115
-0.00016989
7.87201e-05
0.000324745
0.000564144
0.000797033
0.00102468
0.00124091
0.00144133
0.00163089
0.00180548
0.00194911
0.00207023
0.00215739
0.00203242
0.0017736
0.00159317
0.00167832
0.00172189
0.00172398
0.00180584
0.00187231
0.00189923
0.00196224
0.00205295
0.00210275
0.00214675
0.00226021
0.00229537
0.00231075
0.00290631
0.00379546
0.00427754
0.00423816
0.00417
0.00409156
0.00398503
0.00385907
0.00371776
0.00355936
0.00338685
0.00320373
0.0030093
0.00280345
0.00258914
0.0023667
0.00213587
0.00189741
0.00165318
0.00140297
0.00114748
0.000887733
0.00062505
0.000359601
9.2721e-05
-0.000174556
-0.00044103
-0.00070603
-0.000968007
-0.001226
-0.00147875
-0.0017253
-0.0019642
-0.00219454
-0.00241506
-0.00262481
-0.00282256
-0.00300751
-0.00317858
-0.00333503
-0.00347596
-0.0036008
-0.00370884
-0.00379969
-0.00387287
-0.0039282
-0.00396544
-0.00398459
-0.00398566
-0.00396883
-0.00393432
-0.00388246
-0.00381362
-0.00372827
-0.00362691
-0.00351003
-0.0033783
-0.00323232
-0.00307274
-0.00290023
-0.00271574
-0.00251996
-0.00231371
-0.00209807
-0.00187423
-0.00164285
-0.00140519
-0.00116287
-0.000916895
-0.000667842
-0.000417957
-0.000169041
7.89899e-05
0.000324745
0.000564144
0.000797033
0.00102468
0.00124091
0.00144133
0.00163089
0.00180548
0.00194911
0.00207023
0.00215739
0.00203242
0.0017736
0.00159317
0.00167832
0.00172189
0.00172398
0.00180584
0.00187231
0.00189923
0.00196224
0.00205295
0.00210275
0.00214675
0.00226021
0.00229537
0.00231075
0.00290631
0.00379546
0.00427754
0.00423816
0.00417
0.00409156
0.00398503
0.00385907
0.00371776
0.00355936
0.00338685
0.00320373
0.0030093
0.00280345
0.00258914
0.0023667
0.00213587
0.00189741
0.00165318
0.00140297
0.00114748
0.000887733
0.00062505
0.000359601
9.2721e-05
-0.000174556
-0.00044103
-0.00070603
-0.000968007
-0.001226
-0.00147875
-0.0017253
-0.0019642
-0.00219454
-0.00241506
-0.00262481
-0.00282256
-0.00300751
-0.00317858
-0.00333503
-0.00347596
-0.0036008
-0.00370884
-0.00379969
-0.00387287
-0.0039282
-0.00396544
-0.00398459
-0.00398566
-0.00396883
-0.00393432
-0.00388246
-0.00381362
-0.00372827
-0.00362691
-0.00351003
-0.0033783
-0.00323232
-0.00307274
-0.00290023
-0.00271574
-0.00251996
-0.00231371
-0.00209807
-0.00187423
-0.00164285
-0.00140519
-0.00116287
-0.000916895
-0.000667842
-0.000417957
-0.000169041
7.89899e-05
0.000323038
0.00056505
0.000801778
0.00102689
0.00124322
0.00145244
0.00164274
0.00181291
0.00197208
0.00210254
0.00218475
0.00214665
0.00185629
0.00163937
0.0016223
0.00169698
0.00176535
0.0017795
0.00181615
0.00191997
0.00198427
0.00200282
0.00208061
0.00217691
0.00222267
0.002271
0.00237348
0.00304556
0.00400416
0.00427271
0.00423097
0.00417638
0.00409267
0.00398429
0.00385533
0.0037108
0.00355418
0.00338244
0.00319607
0.00300072
0.00279649
0.00258157
0.00235736
0.00212673
0.00188881
0.00164368
0.00139275
0.00113754
0.000877671
0.000614298
0.000348627
8.18137e-05
-0.000185819
-0.000452677
-0.000717748
-0.000979839
-0.00123814
-0.00149105
-0.00173768
-0.00197672
-0.00220723
-0.00242781
-0.00263762
-0.00283544
-0.00302044
-0.00319149
-0.00334794
-0.00348883
-0.00361361
-0.00372155
-0.0038123
-0.00388534
-0.00394051
-0.00397757
-0.00399652
-0.00399737
-0.00398031
-0.00394553
-0.00389341
-0.0038243
-0.00373865
-0.00363696
-0.00351982
-0.00338776
-0.00324137
-0.00308146
-0.00290867
-0.00272369
-0.00252739
-0.0023209
-0.00210484
-0.00188015
-0.00164834
-0.00141061
-0.00116729
-0.000920159
-0.000671353
-0.00042115
-0.00016989
7.87201e-05
0.000323972
0.000567706
0.000804957
0.00103356
0.00125534
0.00146734
0.00166046
0.00183723
0.00200876
0.00215492
0.0022536
0.00232398
0.00197714
0.0016749
0.00163137
0.00162709
0.00173021
0.00177531
0.00182002
0.00188708
0.00193788
0.00199782
0.00208574
0.00214358
0.0021429
0.00229355
0.00243888
0.00332145
0.0042649
0.00425984
0.00425798
0.00419148
0.00408175
0.00397379
0.00385251
0.00370482
0.00354086
0.00336865
0.00318424
0.00298699
0.00278012
0.00256529
0.00234124
0.00210924
0.00187029
0.0016251
0.0013737
0.00111759
0.000857188
0.000593524
0.00032728
5.98774e-05
-0.000208154
-0.000475375
-0.000740924
-0.00100341
-0.00126203
-0.00151525
-0.00176221
-0.0020015
-0.00223222
-0.00245298
-0.00266295
-0.00286087
-0.00304593
-0.003217
-0.00337342
-0.00351422
-0.00363888
-0.00374665
-0.00383717
-0.00390994
-0.0039648
-0.00400148
-0.00402003
-0.00402042
-0.00400289
-0.0039676
-0.00391493
-0.00384525
-0.00375901
-0.00365671
-0.00353891
-0.00340618
-0.00325913
-0.00309847
-0.00292489
-0.00273914
-0.00254205
-0.00233457
-0.00211755
-0.00189204
-0.00165915
-0.00142007
-0.00117578
-0.000927738
-0.000677228
-0.000425344
-0.000173421
7.66352e-05
0.000325648
0.000570814
0.000810065
0.00104591
0.0012717
0.00148309
0.00168981
0.00188393
0.00204663
0.00219832
0.00236996
0.00245416
0.00217514
0.00175739
0.0016148
0.00161877
0.00167601
0.00174303
0.00182655
0.00183084
0.00188426
0.0020054