# vtk DataFile Version 3.0
fluid_state
ASCII
DATASET RECTILINEAR_GRID
DIMENSIONS 100 40 1
X_COORDINATES 100 float
0.5 1.5 2.5 3.5 4.5 5.5 6.5 7.5 8.5 9.5 10.5 11.5 12.5 13.5 14.5 15.5 16.5 17.5 18.5 19.5 20.5 21.5 22.5 23.5 24.5 25.5 26.5 27.5 28.5 29.5 30.5 31.5 32.5 33.5 34.5 35.5 36.5 37.5 38.5 39.5 40.5 41.5 42.5 43.5 44.5 45.5 46.5 47.5 48.5 49.5 50.5 51.5 52.5 53.5 54.5 55.5 56.5 57.5 58.5 59.5 60.5 61.5 62.5 63.5 64.5 65.5 66.5 67.5 68.5 69.5 70.5 71.5 72.5 73.5 74.5 75.5 76.5 77.5 78.5 79.5 80.5 81.5 82.5 83.5 84.5 85.5 86.5 87.5 88.5 89.5 90.5 91.5 92.5 93.5 94.5 95.5 96.5 97.5 98.5 99.5 
Y_COORDINATES 40 float
0.5 1.5 2.5 3.5 4.5 5.5 6.5 7.5 8.5 9.5 10.5 11.5 12.5 13.5 14.5 15.5 16.5 17.5 18.5 19.5 20.5 21.5 22.5 23.5 24.5 25.5 26.5 27.5 28.5 29.5 30.5 31.5 32.5 33.5 34.5 35.5 36.5 37.5 38.5 39.5 
Z_COORDINATES 1 float
0
POINT_DATA 4000
SCALARS density_difference float 1
LOOKUP_TABLE default
-0.00526942
-0.00554641
-0.00581797
-0.00608805
-0.00632259
-0.00653248
-0.00674606
-0.00692997
-0.0070718
-0.00720369
-0.0073142
-0.00738208
-0.00741643
-0.00742673
-0.00740359
-0.00733261
-0.00722975
-0.0070974
-0.00691983
-0.00670912
-0.00647097
-0.0062002
-0.00590852
-0.005595
-0.00526198
-0.00492675
-0.00458185
-0.00422064
-0.00386491
-0.00351504
-0.00314546
-0.00277181
-0.00241252
-0.00203706
-0.00164474
-0.00126292
-0.000875731
-0.000470245
-6.67508e-05
0.000333724
0.000743332
0.00115442
0.0015586
0.00196082
0.00236046
0.00275075
0.00313012
0.00349935
0.00385473
0.0041931
0.00451335
0.0048141
0.00509245
0.00534686
0.00557599
0.00577857
0.00595296
0.00609852
0.00621443
0.00630025
0.00635548
0.00638023
0.00637453
0.0063387
0.00627319
0.00617868
0.00605598
0.00590594
0.00572973
0.00552837
0.00530327
0.00505559
0.00478701
0.00449873
0.00419259
0.00386997
0.00353284
0.00318249
0.00282099
0.00244984
0.00207096
0.00168547
0.00129547
0.000902418
0.000507536
0.000111634
-0.000282997
-0.000675382
-0.00106588
-0.00145328
-0.00183442
-0.00221045
-0.00258347
-0.00294894
-0.00330349
-0.0036538
-0.00399998
-0.00433014
-0.00464734
-0.00496484
-0.00523974
-0.00552291
-0.0058064
-0.00605928
-0.0062839
-0.0065141
-0.00672356
-0.00688512
-0.00703795
-0.00717954
-0.00727601
-0.00733896
-0.00738167
-0.00739704
-0.00736456
-0.00729311
-0.00720509
-0.0070704
-0.00688892
-0.00669116
-0.00645993
-0.00618498
-0.00589899
-0.00559893
-0.00526437
-0.00492302
-0.00458872
-0.00423553
-0.00386619
-0.00351174
-0.00315878
-0.00277812
-0.00240074
-0.00203748
-0.00165114
-0.00125241
-0.00086593
-0.000471205
-6.1541e-05
0.000344231
0.000746827
0.00115576
0.00156366
0.00196389
0.00235917
0.00274943
0.00312865
0.00349503
0.00384825
0.00418613
0.00450498
0.00480383
0.005081
0.00533475
0.00556278
0.0057645
0.00593842
0.00608373
0.00619932
0.00628513
0.00634057
0.00636565
0.00636038
0.00632518
0.00626047
0.00616679
0.0060451
0.00589611
0.00572112
0.00552093
0.00529723
0.00505086
0.00478377
0.00449688
0.00419241
0.00387126
0.00353575
0.00318688
0.00282713
0.00245739
0.00207987
0.00169576
0.0013073
0.000915039
0.000520829
0.000126204
-0.000267451
-0.000660395
-0.00105071
-0.00143624
-0.00181765
-0.00219606
-0.00256743
-0.00292962
-0.0032876
-0.00364084
-0.00398004
-0.00430756
-0.00463407
-0.00494923
-0.00521393
-0.00550848
-0.0057751
-0.00601753
-0.00626541
-0.00649305
-0.00667437
-0.00685083
-0.00702171
-0.00714028
-0.00723167
-0.00731363
-0.00735837
-0.0073602
-0.00733136
-0.00727969
-0.00718293
-0.00704257
-0.00688174
-0.00668027
-0.00644181
-0.00618486
-0.00589467
-0.00558356
-0.00526701
-0.00492625
-0.00457202
-0.00422868
-0.00387571
-0.0034999
-0.0031388
-0.00278276
-0.00239812
-0.00201491
-0.00164356
-0.00125228
-0.000850601
-0.000456998
-5.72872e-05
0.000352646
0.000759386
0.00116317
0.00156897
0.0019715
0.00236586
0.00275328
0.00313212
0.0034985
0.00385041
0.00418695
0.00450546
0.00480381
0.00508023
0.00533337
0.00556128
0.00576276
0.00593653
0.00608181
0.00619765
0.00628365
0.00633944
0.00636497
0.00636031
0.00632572
0.00626175
0.00616888
0.00604808
0.00590004
0.00572605
0.00552694
0.00530431
0.00505911
0.00479314
0.00450751
0.00420418
0.00388428
0.0035499
0.00320233
0.00284357
0.00247489
0.00209831
0.00171525
0.00132724
0.00093556
0.000542032
0.000147875
-0.000246331
-0.00063906
-0.00102853
-0.00141461
-0.00179775
-0.00217484
-0.00254447
-0.00290951
-0.00326939
-0.00361702
-0.00395494
-0.00429016
-0.00461408
-0.00491697
-0.00519426
-0.00547566
-0.00573422
-0.00599458
-0.00624182
-0.00644471
-0.00663766
-0.00683402
-0.00698207
-0.00709603
-0.00721033
-0.00728946
-0.0073276
-0.00733416
-0.00731863
-0.00727127
-0.00716602
-0.00703787
-0.00688612
-0.00667687
-0.00643901
-0.00618879
-0.00589658
-0.0055752
-0.00525819
-0.00492402
-0.00456399
-0.00420605
-0.00386216
-0.00349836
-0.00311738
-0.0027594
-0.00239597
-0.0020039
-0.00162105
-0.00124322
-0.000844538
-0.000441134
-4.41561e-05
0.000359808
0.000770147
0.00117604
0.00157839
0.00198031
0.00237668
0.0027634
0.00314089
0.00350772
0.00386005
0.00419592
0.00451425
0.0048129
0.0050894
0.0053424
0.00557056
0.00577235
0.00594639
0.00609193
0.00620826
0.00629472
0.00635102
0.00637712
0.00637312
0.00633921
0.00627597
0.00618395
0.00606399
0.00591688
0.00574381
0.00554577
0.00532411
0.00508003
0.00481509
0.00453063
0.00422825
0.00390952
0.00357607
0.00322953
0.00287143
0.00250363
0.00212761
0.00174496
0.00135695
0.000965662
0.000571991
0.000177181
-0.000217595
-0.000610095
-0.00100063
-0.00138838
-0.00177133
-0.0021476
-0.00251986
-0.00288638
-0.00324268
-0.00358978
-0.00393337
-0.00426613
-0.00458147
-0.00488937
-0.00515926
-0.00543236
-0.00570838
-0.00596911
-0.00618891
-0.00640112
-0.00662214
-0.00679221
-0.00692468
-0.00707536
-0.00719013
-0.0072486
-0.00729977
-0.00732724
-0.0073153
-0.00725378
-0.00717003
-0.00705941
-0.00688585
-0.00668917
-0.00646544
-0.00618824
-0.00590186
-0.00559391
-0.00524771
-0.00490368
-0.00456685
-0.00419745
-0.0038228
-0.00348065
-0.00311616
-0.00272725
-0.00236636
-0.00199951
-0.00160487
-0.00121679
-0.000832514
-0.000431796
-2.60584e-05
0.000375518
0.000780457
0.00118907
0.00159369
0.00199338
0.00238908
0.00277758
0.00315544
0.00352167
0.00387441
0.00421125
0.00452986
0.0048287
0.00510582
0.00535959
0.0055882
0.00579054
0.0059653
0.00611161
0.00622852
0.00631574
0.0063728
0.0063997
0.00639643
0.00636342
0.00630101
0.00620992
0.00609084
0.00594478
0.00577265
0.00557569
0.00535501
0.00511206
0.00484808
0.00456471
0.00426326
0.00394555
0.00361283
0.00326704
0.00290948
0.00254217
0.00216612
0.00178345
0.00139524
0.00100342
0.000608569
0.000212957
-0.000182592
-0.000576705
-0.000969262
-0.00135738
-0.00174082
-0.00211972
-0.00249342
-0.00285744
-0.00321411
-0.00356567
-0.00390697
-0.00423248
-0.00455235
-0.00486673
-0.00511797
-0.00540371
-0.00567618
-0.00591507
-0.00614455
-0.00637935
-0.00657466
-0.0067287
-0.00690234
-0.00705064
-0.00713626
-0.00722307
-0.00729059
-0.00731539
-0.00730695
-0.00725482
-0.00719637
-0.0070796
-0.0069069
-0.00672307
-0.00649526
-0.00621031
-0.00591762
-0.00560586
-0.00525454
-0.00489465
-0.00454268
-0.00418875
-0.00380671
-0.00343465
-0.00309073
-0.00271495
-0.0023299
-0.0019679
-0.00159057
-0.00119506
-0.000806522
-0.000414599
-1.05554e-05
0.000395033
0.000798371
0.00120449
0.00161047
0.00201129
0.00240627
0.00279513
0.00317411
0.00354098
0.0038942
0.00423202
0.00455151
0.00485124
0.00512924
0.00538403
0.00561353
0.0058169
0.00599258
0.00613991
0.0062577
0.00634593
0.00640386
0.00643175
0.00642933
0.00639734
0.0063358
0.00624575
0.00612756
0.0059826
0.00581138
0.00561553
0.00539578
0.00515392
0.00489081
0.00460846
0.00430778
0.00399086
0.00365863
0.00331337
0.00295594
0.00258858
0.0022121
0.00182894
0.0014397
0.00104654
0.000650182
0.000253147
-0.000144558
-0.000540883
-0.000934858
-0.00132432
-0.00171043
-0.0020907
-0.0024635
-0.00282847
-0.00318813
-0.00353728
-0.00387416
-0.00420334
-0.00452588
-0.00482961
-0.00508731
-0.00536996
-0.00562291
-0.00586808
-0.00611937
-0.00633137
-0.00650279
-0.00669881
-0.00688328
-0.00698356
-0.0070935
-0.00721899
-0.00727085
-0.00729608
-0.00730252
-0.00728917
-0.0072226
-0.00709025
-0.00696549
-0.00676744
-0.00651713
-0.00626556
-0.00594651
-0.00560103
-0.0052724
-0.0049109
-0.004508
-0.00414698
-0.00380552
-0.0034043
-0.00302739
-0.00268792
-0.00230845
-0.00192101
-0.0015552
-0.00117444
-0.000777614
-0.000383902
1.12488e-05
0.000415974
0.000822657
0.001227
0.00163068
0.00203302
0.00242914
0.00281768
0.00319706
0.00356548
0.00391969
0.00425832
0.00457893
0.00488018
0.00515928
0.00541527
0.00564602
0.00585082
0.00602756
0.00617615
0.00629509
0.00638456
0.00644344
0.00647253
0.00647109
0.00644022
0.0063796
0.00629069
0.00617344
0.00602958
0.0058593
0.00566456
0.00544568
0.00520485
0.00494253
0.00466106
0.00436093
0.00404459
0.00371262
0.00336749
0.00300969
0.00264183
0.00226446
0.00188003
0.00148893
0.00109393
0.000695456
0.000295773
-0.000104798
-0.000503196
-0.000899413
-0.00129184
-0.00167996
-0.0020603
-0.00243446
-0.00280188
-0.00316015
-0.00350596
-0.00384517
-0.00417597
-0.0044902
-0.00478962
-0.00505044
-0.0053187
-0.00558069
-0.00583835
-0.00606499
-0.00626181
-0.00647377
-0.00667346
-0.00680117
-0.00693393
-0.00710003
-0.00717643
-0.00723263
-0.00730105
-0.00731501
-0.00731645
-0.00723599
-0.00713923
-0.0070261
-0.00681432
-0.00656696
-0.00630658
-0.00597858
-0.00562724
-0.00526929
-0.00489571
-0.004515
-0.00410526
-0.00374124
-0.00338446
-0.00298551
-0.00261878
-0.00226662
-0.00188527
-0.00150657
-0.00113228
-0.000745225
-0.00035036
4.50733e-05
0.000445591
0.000850091
0.00125505
0.0016583
0.00205994
0.0024562
0.00284562
0.00322574
0.0035951
0.00395025
0.00429037
0.00461235
0.00491502
0.00519545
0.00545316
0.00568532
0.00589163
0.00606974
0.00621991
0.00634009
0.00643096
0.00649103
0.00652146
0.00652109
0.00649148
0.00643189
0.0063442
0.00622793
0.00608524
0.00591591
0.00572226
0.00550424
0.00526436
0.00500274
0.00472196
0.00442222
0.00410619
0.0037741
0.00342861
0.00307004
0.00270111
0.00232206
0.00193559
0.00154214
0.00114446
0.000742755
0.00033985
-6.36535e-05
-0.000465135
-0.000864784
-0.00125955
-0.0016489
-0.00203133
-0.00240763
-0.00277391
-0.00313053
-0.00347848
-0.00381745
-0.00414115
-0.00445382
-0.00475943
-0.00500543
-0.00527759
-0.0055464
-0.00578719
-0.00600172
-0.00622605
-0.0064439
-0.00659384
-0.00673732
-0.00693877
-0.00705712
-0.00710618
-0.00723288
-0.00730655
-0.00733178
-0.00731797
-0.00727078
-0.00723747
-0.00704836
-0.00685962
-0.00664462
-0.00632259
-0.00601739
-0.00567145
-0.00525108
-0.00484179
-0.00450882
-0.0041004
-0.0036524
-0.00331087
-0.00295415
-0.00254972
-0.00219055
-0.00183615
-0.00145521
-0.00107517
-0.000698498
-0.000309568
8.69742e-05
0.000484924
0.000885068
0.00128946
0.00169257
0.00209304
0.0024889
0.00287919
0.00325978
0.00362991
0.00398617
0.0043278
0.00465105
0.00495532
0.00523731
0.00549681
0.00573047
0.00593852
0.00611822
0.00627008
0.00639166
0.00648414
0.00654558
0.00657747
0.00657833
0.00655013
0.00649171
0.00640531
0.00629015
0.00614869
0.00598037
0.0057878
0.00557067
0.00533167
0.00507066
0.00479039
0.00449087
0.00417481
0.00384226
0.00349599
0.00313616
0.00276547
0.00238411
0.00199501
0.00159847
0.00119723
0.000791758
0.000385256
-2.19714e-05
-0.000427326
-0.000830116
-0.00122715
-0.00161899
-0.00200366
-0.00238013
-0.00274585
-0.00310356
-0.00345126
-0.00378597
-0.00410776
-0.00442282
-0.00472399
-0.00496799
-0.00524352
-0.00549521
-0.0057305
-0.0059692
-0.00618798
-0.0063616
-0.00653553
-0.0067452
-0.00687924
-0.00694554
-0.00712707
-0.00725655
-0.00726136
-0.00733496
-0.00733394
-0.00735285
-0.00729342
-0.007108
-0.00694423
-0.00669925
-0.00635198
-0.0060208
-0.00563519
-0.00526091
-0.00484902
-0.00440096
-0.00403922
-0.00363027
-0.00320572
-0.00285564
-0.00248893
-0.002113
-0.00175331
-0.00138758
-0.00101425
-0.00063806
-0.000253582
0.000136445
0.000531356
0.000929852
0.00133187
0.00173263
0.00213234
0.00252807
0.00291835
0.00329883
0.00366986
0.00402732
0.00437013
0.0046945
0.00500059
0.00528423
0.00554538
0.0057807
0.00599071
0.00617204
0.00632565
0.00644888
0.0065431
0.00660602
0.0066395
0.0066418
0.00661509
0.00655799
0.00647298
0.00635908
0.00621889
0.00605168
0.00586022
0.005644
0.00540579
0.00514533
0.00486542
0.00456589
0.00424947
0.00391616
0.00356866
0.00320702
0.00283399
0.0024499
0.00205749
0.00165713
0.00125186
0.000842408
0.000431607
2.00395e-05
-0.000388942
-0.000794679
-0.001195
-0.00158952
-0.00197491
-0.00235164
-0.00271915
-0.00307666
-0.00342066
-0.00375444
-0.00407853
-0.00438852
-0.00468184
-0.00493174
-0.00519892
-0.00544865
-0.00569277
-0.0059243
-0.00612278
-0.00631077
-0.00651763
-0.00668462
-0.00677475
-0.00695022
-0.00714669
-0.00715916
-0.00725348
-0.00737074
-0.00740303
-0.00743047
-0.0072805
-0.00729925
-0.00708016
-0.00672488
-0.00638744
-0.00594266
-0.00554638
-0.00523352
-0.00486454
-0.00431242
-0.00388665
-0.00356388
-0.00312312
-0.00272734
-0.00239202
-0.00202244
-0.00165608
-0.00130391
-0.000938826
-0.000564646
-0.000187299
0.00019551
0.000587772
0.000982978
0.00138081
0.00177961
0.00217858
0.00257263
0.00296224
0.00334321
0.00371474
0.00407251
0.00441655
0.00474234
0.00504983
0.00533492
0.00559791
0.00583499
0.00604679
0.00622987
0.00638537
0.00651036
0.00660634
0.00667092
0.00670613
0.00671002
0.00668488
0.00662929
0.00654578
0.00643326
0.0062944
0.00612843
0.00593807
0.00572278
0.00548532
0.00522538
0.00494563
0.00464593
0.00432891
0.00399455
0.0036454
0.00328162
0.00290591
0.0025186
0.00212242
0.00171805
0.00130851
0.000894583
0.000479238
6.36507e-05
-0.000349138
-0.00075853
-0.00116185
-0.00155811
-0.00194512
-0.00232342
-0.00269103
-0.0030471
-0.00339096
-0.00372479
-0.0040457
-0.00435199
-0.00464648
-0.00489082
-0.00515388
-0.00541236
-0.00565222
-0.00586476
-0.00607473
-0.00628532
-0.0064534
-0.00658469
-0.00677541
-0.00697522
-0.0069789
-0.00709498
-0.00740376
-0.00740478
-0.00742362
-0.00736422
-0.0073183
-0.00666026
-0.00594578
-0.00571101
-0.00573954
-0.00587801
-0.00560771
-0.00509707
-0.00463343
-0.00429446
-0.00378689
-0.00335924
-0.00300855
-0.00262016
-0.00225754
-0.00190128
-0.00154972
-0.001205
-0.000846435
-0.000481453
-0.000112222
0.000265355
0.00065256
0.00104247
0.00143652
0.00183284
0.00222987
0.00262207
0.0030107
0.00339157
0.00376327
0.00412125
0.00446619
0.00479322
0.00510195
0.00538843
0.00565319
0.00589198
0.00610549
0.00629041
0.00644781
0.00657461
0.00667238
0.00673881
0.00677576
0.00678137
0.0067579
0.00670397
0.006622
0.006511
0.00637352
0.00620887
0.00601961
0.0058053
0.00556852
0.00530903
0.00502931
0.00472932
0.00441148
0.00407582
0.00372478
0.00335868
0.00297999
0.00258923
0.00218916
0.00178077
0.00136676
0.000948326
0.000528712
0.000109231
-0.000307624
-0.000720471
-0.0011262
-0.00152439
-0.0019138
-0.00229311
-0.0026599
-0.00301605
-0.00336139
-0.00369304
-0.00400987
-0.0043175
-0.00461361
-0.00485275
-0.00511819
-0.00537022
-0.00560451
-0.005824
-0.00603234
-0.00622308
-0.00639221
-0.00655836
-0.00673916
-0.00683774
-0.00693149
-0.00722758
-0.00728692
-0.00731281
-0.00688702
-0.00588246
-0.00519897
-0.00445163
-0.00383738
-0.00382859
-0.00375613
-0.0041341
-0.00469702
-0.00464837
-0.00435374
-0.004075
-0.00366643
-0.00317967
-0.00284862
-0.00246719
-0.00209188
-0.00177285
-0.00143339
-0.00108447
-0.000742263
-0.000392999
-2.73355e-05
0.00034428
0.000721729
0.00110694
0.00149882
0.00189042
0.00228376
0.00267532
0.00306298
0.00344216
0.00381371
0.00417253
0.0045178
0.00484539
0.00515546
0.00544345
0.00570951
0.00594991
0.00616522
0.00635198
0.00651108
0.00663976
0.00673939
0.00680768
0.00684637
0.00685382
0.00683207
0.00677987
0.00669948
0.00659009
0.00645402
0.00629071
0.00610256
0.00588924
0.00565308
0.00539399
0.00511424
0.00481388
0.00449508
0.00415809
0.00380512
0.00343662
0.00305492
0.0026609
0.00225711
0.0018447
0.00142647
0.0010041
0.000580359
0.000156818
-0.00026356
-0.000679147
-0.00108791
-0.00148872
-0.00187933
-0.00225925
-0.00262783
-0.00298461
-0.0033282
-0.00365913
-0.00397766
-0.00428363
-0.00457514
-0.00481752
-0.0050835
-0.00532645
-0.00555823
-0.00578538
-0.00598713
-0.00616365
-0.00634087
-0.00650983
-0.00663709
-0.00675488
-0.00701972
-0.0071072
-0.00697617
-0.00646814
-0.00501266
-0.00375975
-0.00316126
-0.0030007
-0.00272592
-0.00264351
-0.00258618
-0.00259389
-0.00295234
-0.00337309
-0.00382164
-0.00370783
-0.0033872
-0.00303352
-0.00264139
-0.00227886
-0.00192257
-0.00161496
-0.00129625
-0.00096348
-0.000632976
-0.000293066
6.25041e-05
0.000424858
0.000795678
0.00117526
0.00156219
0.00195022
0.00234042
0.00272955
0.00311581
0.00349411
0.00386496
0.00422381
0.00456947
0.00489772
0.00520868
0.00549793
0.00576526
0.00600722
0.00622411
0.00641259
0.00657337
0.00670393
0.0068053
0.00687545
0.00691588
0.00692519
0.0069051
0.00685465
0.00677584
0.00666806
0.00653336
0.00637141
0.00618431
0.00597194
0.00573635
0.00547764
0.00519779
0.00489702
0.00457728
0.004239
0.00388414
0.0035134
0.00312896
0.00273196
0.00232473
0.00190877
0.00148687
0.00106091
0.000633401
0.000206466
-0.000216991
-0.000635409
-0.00104698
-0.00144981
-0.00184185
-0.00222323
-0.00259341
-0.00295033
-0.00329328
-0.00362511
-0.00394484
-0.00424799
-0.00453676
-0.00478099
-0.00504181
-0.00529039
-0.0055228
-0.00573736
-0.00593636
-0.00611585
-0.00627766
-0.00644209
-0.0065755
-0.00669056
-0.00686316
-0.00690944
-0.00625853
-0.00466233
-0.00341918
-0.00296735
-0.00298109
-0.0028418
-0.00278089
-0.00265876
-0.00263329
-0.00258383
-0.00229193
-0.00233213
-0.00278603
-0.00317769
-0.00318209
-0.00279816
-0.00232242
-0.00206543
-0.00177973
-0.00144098
-0.00113989
-0.000844153
-0.000521365
-0.000187927
0.000150825
0.000504007
0.000871994
0.00124418
0.00162331
0.00200917
0.00239751
0.00278268
0.00316669
0.00354504
0.00391511
0.00427307
0.00461905
0.00494825
0.00525964
0.00554979
0.00581843
0.00606186
0.00627999
0.00647009
0.00663252
0.00676482
0.00686776
0.00693972
0.00698184
0.00699288
0.00697438
0.00692564
0.00684832
0.00674205
0.00660865
0.006448
0.00626187
0.00605038
0.00581534
0.00555697
0.00527702
0.0049759
0.00465535
0.00431593
0.00395944
0.00358685
0.00320012
0.00280055
0.00239046
0.00197173
0.00154674
0.00111756
0.000687065
0.000257527
-0.000168982
-0.000590287
-0.00100378
-0.00140831
-0.00180313
-0.00218625
-0.00255629
-0.00291434
-0.00326021
-0.0035914
-0.00390835
-0.00421372
-0.0045057
-0.00474617
-0.00500559
-0.00525636
-0.00548673
-0.0056891
-0.00588274
-0.0060738
-0.00623345
-0.00635198
-0.00645424
-0.00661919
-0.00672513
-0.00626976
-0.00471894
-0.00342292
-0.0031649
-0.00293159
-0.00282964
-0.00285406
-0.00285666
-0.00268791
-0.00253278
-0.00242623
-0.00231435
-0.00223183
-0.0021853
-0.00236133
-0.00256685
-0.00245097
-0.00211383
-0.0018185
-0.00156739
-0.00128248
-0.00100434
-0.000717262
-0.000409188
-9.25168e-05
0.000236806
0.000582169
0.000941226
0.00130826
0.00168346
0.00206425
0.00244909
0.00283292
0.00321497
0.00359156
0.00396104
0.00431905
0.00466477
0.00499427
0.00530631
0.0055974
0.00586691
0.00611154
0.00633092
0.0065225
0.00668626
0.00682012
0.00692457
0.00699816
0.00704173
0.0070544
0.00703735
0.00699013
0.00691415
0.00680928
0.00667703
0.00651751
0.00633226
0.00612157
0.00588699
0.00562893
0.00534893
0.00504756
0.00472633
0.00438603
0.00402828
0.00365422
0.00326568
0.00286419
0.00245196
0.00203097
0.00160356
0.00117211
0.000739246
0.000307275
-0.000121537
-0.000544798
-0.000960478
-0.00136713
-0.00176355
-0.00214805
-0.00251988
-0.00287925
-0.00322576
-0.00355757
-0.00387526
-0.00418108
-0.00447291
-0.00471847
-0.00497951
-0.00521749
-0.00544379
-0.00566005
-0.00584882
-0.00600931
-0.00615742
-0.00628425
-0.00640664
-0.00653825
-0.00646533
-0.00525946
-0.00367342
-0.00304501
-0.0029327
-0.00298212
-0.00295695
-0.00285828
-0.00270621
-0.00265433
-0.00257861
-0.00239778
-0.00225087
-0.00209223
-0.00200201
-0.00182669
-0.0017553
-0.00198611
-0.00193808
-0.00162226
-0.00136012
-0.00113422
-0.000871595
-0.000595005
-0.000313816
-1.05544e-05
0.000317389
0.000653713
0.00100059
0.00136387
0.0017376
0.00211315
0.00249361
0.00287675
0.00325758
0.00363206
0.00400072
0.00435907
0.00470448
0.00503394
0.00534657
0.00563855
0.00590863
0.00615424
0.00637474
0.00656754
0.00673238
0.0068676
0.00697334
0.0070483
0.00709311
0.00710718
0.00709138
0.00704544
0.00697059
0.0068669
0.00673563
0.00657706
0.00639256
0.00618255
0.00594835
0.00569059
0.0054106
0.00510908
0.0047874
0.00444652
0.00408793
0.00371284
0.00332304
0.0029203
0.00250659
0.00208395
0.00165489
0.00122193
0.000787185
0.000353221
-7.7165e-05
-0.00050195
-0.000919938
-0.00132855
-0.00172581
-0.00211192
-0.00248664
-0.00284678
-0.00319252
-0.00352683
-0.00384769
-0.00415037
-0.00443932
-0.00469145
-0.00495093
-0.00519178
-0.00541615
-0.00562508
-0.00580766
-0.00596177
-0.00610787
-0.00623971
-0.00632732
-0.00631956
-0.00630206
-0.00473305
-0.00327243
-0.00304836
-0.00290552
-0.0029843
-0.00291449
-0.00282558
-0.00272444
-0.00264458
-0.00252476
-0.00237917
-0.00225379
-0.00200168
-0.00184434
-0.00181165
-0.00175005
-0.00173941
-0.00161034
-0.00141921
-0.00121266
-0.00100531
-0.00075805
-0.000501367
-0.000230858
6.35216e-05
0.000377754
0.000707892
0.00105355
0.00141036
0.00177774
0.00215255
0.00253166
0.00291131
0.00329056
0.00366522
0.00403297
0.00439045
0.00473601
0.00506595
0.00537863
0.00567104
0.00594185
0.0061883
0.00640946
0.00660319
0.00676902
0.00690529
0.00701196
0.00708803
0.00713389
0.007149
0.00713415
0.00708925
0.0070153
0.00691249
0.00678198
0.00662417
0.00644023
0.00623073
0.00599688
0.00573937
0.00545941
0.00515783
0.00483591
0.00449468
0.00413553
0.00375985
0.00336934
0.00296573
0.00255106
0.00212754
0.00169744
0.0012632
0.000827307
0.00039236
-3.9502e-05
-0.000465938
-0.000884913
-0.00129464
-0.00169409
-0.00208166
-0.00245655
-0.00281833
-0.0031667
-0.00350065
-0.00382054
-0.00412598
-0.00441631
-0.00467073
-0.00492909
-0.00517692
-0.00539724
-0.00558903
-0.005777
-0.00595147
-0.00606586
-0.00613552
-0.00623841
-0.00630422
-0.00575998
-0.00420915
-0.00309192
-0.00292301
-0.00302175
-0.00300147
-0.00285172
-0.00279827
-0.00277757
-0.00263311
-0.00244424
-0.00235215
-0.00228036
-0.00203328
-0.00170083
-0.00172512
-0.00168732
-0.00147748
-0.00141738
-0.00129316
-0.00107004
-0.000879797
-0.000685442
-0.000444671
-0.00016737
0.000119799
0.000419446
0.000745057
0.00109091
0.00144355
0.00180609
0.0021798
0.00255818
0.00293574
0.00331361
0.00368821
0.00405548
0.00441239
0.00475793
0.00508819
0.00540093
0.00569362
0.00596491
0.00621193
0.00643355
0.00662794
0.00679443
0.00693142
0.00703874
0.00711557
0.00716213
0.00717798
0.00716378
0.00711958
0.00704624
0.00694404
0.00681405
0.00665676
0.0064732
0.00626405
0.00603045
0.00577313
0.00549323
0.00519166
0.00486965
0.00452824
0.00416883
0.00379287
0.00340198
0.00299792
0.00258275
0.00215876
0.00172806
0.00129307
0.000856523
0.000420918
-1.19604e-05
-0.00043946
-0.000859118
-0.00126979
-0.00167082
-0.00205939
-0.0024345
-0.00279769
-0.00314805
-0.00348156
-0.00380065
-0.00410883
-0.00440049
-0.0046649
-0.00492265
-0.00515886
-0.00538233
-0.00558892
-0.00576379
-0.00590898
-0.00604477
-0.00615677
-0.00617435
-0.0061332
-0.005281
-0.00375105
-0.00288432
-0.00304328
-0.00302086
-0.00289308
-0.00291316
-0.00283197
-0.00269827
-0.00260346
-0.00252413
-0.00236066
-0.00211812
-0.00203736
-0.00189543
-0.00151077
-0.00134491
-0.00127976
-0.00118279
-0.00114235
-0.00104777
-0.000850652
-0.000629546
-0.000396432
-0.000143193
0.000138869
0.00044729
0.000769224
0.00110543
0.00145887
0.00182403
0.00219399
0.0025698
0.00294882
0.00332653
0.0036994
0.00406659
0.00442415
0.00476932
0.00509926
0.00541237
0.00570541
0.00597669
0.00622392
0.00644595
0.00664069
0.0068074
0.00694476
0.0070525
0.00712969
0.00717656
0.00719281
0.00717897
0.0071351
0.00706205
0.0069602
0.00683047
0.0066734
0.00649006
0.00628111
0.00604761
0.00579039
0.00551055
0.00520899
0.00488692
0.00454546
0.00418599
0.00380987
0.00341879
0.00301462
0.00259929
0.00217495
0.00174398
0.00130892
0.000871957
0.00043567
2.65036e-06
-0.000424938
-0.000845692
-0.00125719
-0.0016577
-0.00204686
-0.00242417
-0.00278707
-0.00313575
-0.00347187
-0.00379356
-0.00409759
-0.0043876
-0.0046649
-0.00492265
-0.00515886
-0.00538233
-0.00558892
-0.00576379
-0.00590898
-0.00604477
-0.00615677
-0.00617435
-0.0061332
-0.005281
-0.00375105
-0.00288432
-0.00304328
-0.00302086
-0.00289308
-0.00291316
-0.00283197
-0.00269827
-0.00260346
-0.00252413
-0.00236066
-0.00211812
-0.00203736
-0.00189543
-0.00151077
-0.00134491
-0.00127976
-0.00118279
-0.00114235
-0.00104777
-0.000850652
-0.000629546
-0.000396432
-0.000143193
0.000138869
0.00044729
0.000769224
0.00110543
0.00145887
0.00182403
0.00219399
0.0025698
0.00294882
0.00332653
0.0036994
0.00406659
0.00442415
0.00476932
0.00509926
0.00541237
0.00570541
0.00597669
0.00622392
0.00644595
0.00664069
0.0068074
0.00694476
0.0070525
0.00712969
0.00717656
0.00719281
0.00717897
0.0071351
0.00706205
0.0069602
0.00683047
0.0066734
0.00649006
0.00628111
0.00604761
0.00579039
0.00551055
0.00520899
0.00488692
0.00454546
0.00418599
0.00380987
0.00341879
0.00301462
0.00259929
0.00217495
0.00174398
0.00130892
0.000871957
0.00043567
2.65036e-06
-0.000424938
-0.000845692
-0.00125719
-0.0016577
-0.00204686
-0.00242417
-0.00278707
-0.00313575
-0.00347187
-0.00379356
-0.00409759
-0.0043876
-0.00467073
-0.00492909
-0.00517692
-0.00539724
-0.00558903
-0.005777
-0.00595147
-0.00606586
-0.00613552
-0.00623841
-0.00630422
-0.00575998
-0.00420915
-0.00309192
-0.00292301
-0.00302175
-0.00300147
-0.00285172
-0.00279827
-0.00277757
-0.00263311
-0.00244424
-0.00235215
-0.00228036
-0.00203328
-0.00170083
-0.00172512
-0.00168732
-0.00147748
-0.00141738
-0.00129316
-0.00107004
-0.000879797
-0.000685442
-0.000444671
-0.00016737
0.000119799
0.000419446
0.000745057
0.00109091
0.00144355
0.00180609
0.0021798
0.00255818
0.00293574
0.00331361
0.00368821
0.00405548
0.00441239
0.00475793
0.00508819
0.00540093
0.00569362
0.00596491
0.00621193
0.00643355
0.00662794
0.00679443
0.00693142
0.00703874
0.00711557
0.00716213
0.00717798
0.00716378
0.00711958
0.00704624
0.00694404
0.00681405
0.00665676
0.0064732
0.00626405
0.00603045
0.00577313
0.00549323
0.00519166
0.00486965
0.00452824
0.00416883
0.00379287
0.00340198
0.00299792
0.00258275
0.00215876
0.00172806
0.00129307
0.000856523
0.000420918
-1.19604e-05
-0.00043946
-0.000859118
-0.00126979
-0.00167082
-0.00205939
-0.0024345
-0.00279769
-0.00314805
-0.00348156
-0.00380065
-0.00410883
-0.00440049
-0.00469145
-0.00495093
-0.00519178
-0.00541615
-0.00562508
-0.00580766
-0.00596177
-0.00610787
-0.00623971
-0.00632732
-0.00631956
-0.00630206
-0.00473305
-0.00327243
-0.00304836
-0.00290552
-0.0029843
-0.00291449
-0.00282558
-0.00272444
-0.00264458
-0.00252476
-0.00237917
-0.00225379
-0.00200168
-0.00184434
-0.00181165
-0.00175005
-0.00173941
-0.00161034
-0.00141921
-0.00121266
-0.00100531
-0.00075805
-0.000501367
-0.000230858
6.35216e-05
0.000377754
0.000707892
0.00105355
0.00141036
0.00177774
0.00215255
0.00253166
0.00291131
0.00329056
0.00366522
0.00403297
0.00439045
0.00473601
0.00506595
0.00537863
0.00567104
0.00594185
0.0061883
0.00640946
0.00660319
0.00676902
0.00690529
0.00701196
0.00708803
0.00713389
0.007149
0.00713415
0.00708925
0.0070153
0.00691249
0.00678198
0.00662417
0.00644023
0.00623073
0.00599688
0.00573937
0.00545941
0.00515783
0.00483591
0.00449468
0.00413553
0.00375985
0.00336934
0.00296573
0.00255106
0.00212754
0.00169744
0.0012632
0.000827307
0.00039236
-3.9502e-05
-0.000465938
-0.000884913
-0.00129464
-0.00169409
-0.00208166
-0.00245655
-0.00281833
-0.0031667
-0.00350065
-0.00382054
-0.00412598
-0.00441631
-0.00471847
-0.00497951
-0.00521749
-0.00544379
-0.00566005
-0.00584882
-0.00600931
-0.00615742
-0.00628425
-0.00640664
-0.00653825
-0.00646533
-0.00525946
-0.00367342
-0.00304501
-0.0029327
-0.00298212
-0.00295695
-0.00285828
-0.00270621
-0.00265433
-0.00257861
-0.00239778
-0.00225087