# vtk DataFile Version 3.0
fluid_state
ASCII
DATASET RECTILINEAR_GRID
DIMENSIONS 100 40 1
X_COORDINATES 100 float
0.5 1.5 2.5 3.5 4.5 5.5 6.5 7.5 8.5 9.5 10.5 11.5 12.5 13.5 14.5 15.5 16.5 17.5 18.5 19.5 20.5 21.5 22.5 23.5 24.5 25.5 26.5 27.5 28.5 29.5 30.5 31.5 32.5 33.5 34.5 35.5 36.5 37.5 38.5 39.5 40.5 41.5 42.5 43.5 44.5 45.5 46.5 47.5 48.5 49.5 50.5 51.5 52.5 53.5 54.5 55.5 56.5 57.5 58.5 59.5 60.5 61.5 62.5 63.5 64.5 65.5 66.5 67.5 68.5 69.5 70.5 71.5 72.5 73.5 74.5 75.5 76.5 77.5 78.5 79.5 80.5 81.5 82.5 83.5 84.5 85.5 86.5 87.5 88.5 89.5 90.5 91.5 92.5 93.5 94.5 95.5 96.5 97.5 98.5 99.5 
Y_COORDINATES 40 float
0.5 1.5 2.5 3.5 4.5 5.5 6.5 7.5 8.5 9.5 10.5 11.5 12.5 13.5 14.5 15.5 16.5 17.5 18.5 19.5 20.5 21.5 22.5 23.5 24.5 25.5 26.5 27.5 28.5 29.5 30.5 31.5 32.5 33.5 34.5 35.5 36.5 37.5 38.5 39.5 
Z_COORDINATES 1 float
0
POINT_DATA 4000
SCALARS density_difference float 1
LOOKUP_TABLE default
0.000758543
0.000766013
0.000771945
0.000775683
0.000774174
0.00076497
0.000747837
0.000728808
0.000700264
0.000650563
0.000598284
0.000541735
0.000455466
0.000361155
0.000267508
0.000149976
2.69484e-05
-9.23754e-05
-0.000223838
-0.000345845
-0.000454394
-0.000569984
-0.000663022
-0.000732672
-0.000805686
-0.000857518
-0.000884868
-0.000913811
-0.00092873
-0.000924979
-0.000921209
-0.000913028
-0.000893672
-0.000869701
-0.000846981
-0.000822581
-0.000792021
-0.00076039
-0.000732236
-0.00070259
-0.000669425
-0.000638007
-0.000609009
-0.000578444
-0.000546926
-0.00051753
-0.000489139
-0.000459816
-0.00043084
-0.000403389
-0.000376191
-0.000348699
-0.000321912
-0.000295979
-0.000270044
-0.000244201
-0.000218961
-0.000194106
-0.00016923
-0.000144582
-0.000120298
-9.61573e-05
-7.20343e-05
-4.8113e-05
-2.43563e-05
-6.54465e-07
2.30156e-05
4.6569e-05
7.00638e-05
9.35198e-05
0.000116974
0.00014038
0.000163742
0.000187078
0.000210471
0.000233809
0.000257063
0.000280358
0.000303744
0.000326946
0.000350056
0.000373352
0.000396618
0.000419462
0.000442383
0.000465613
0.00048835
0.000510495
0.000533189
0.000555908
0.00057725
0.000598352
0.000620508
0.000641328
0.00065998
0.000679593
0.000699497
0.000715566
0.000729988
0.000745799
0.000749352
0.000756791
0.00076203
0.000763824
0.000759985
0.000746252
0.000730215
0.000713115
0.00067321
0.000620886
0.000580264
0.000514824
0.000417927
0.000334896
0.000246385
0.000122467
-2.07445e-06
-0.000109335
-0.000230582
-0.000359648
-0.000462178
-0.000561141
-0.000658009
-0.000722725
-0.000784129
-0.000844358
-0.000866532
-0.000882097
-0.000908437
-0.000909688
-0.000894105
-0.000886604
-0.000877454
-0.000854286
-0.000825654
-0.000803634
-0.000780638
-0.000748846
-0.000717109
-0.000690843
-0.000662246
-0.000629647
-0.000599381
-0.000571843
-0.000542293
-0.00051183
-0.000483512
-0.000456204
-0.00042777
-0.000399731
-0.000373061
-0.000346662
-0.000319838
-0.00029373
-0.00026831
-0.000242942
-0.000217536
-0.000192743
-0.000168202
-0.000143704
-0.000119303
-9.53049e-05
-7.13349e-05
-4.74465e-05
-2.36496e-05
-7.68959e-08
2.35591e-05
4.70832e-05
7.05704e-05
9.39516e-05
0.000117416
0.000140745
0.000164102
0.00018742
0.000210787
0.000233998
0.000257314
0.000280603
0.000303837
0.000326929
0.000350222
0.000373377
0.000396322
0.000419241
0.000442403
0.000465098
0.000487475
0.000510092
0.000532717
0.000554275
0.000575686
0.000597586
0.000618591
0.000637884
0.000657636
0.000677403
0.000694529
0.000709844
0.000725805
0.000739617
0.000743398
0.000753517
0.000756914
0.000753667
0.000748981
0.000740739
0.000722979
0.000691354
0.000656082
0.00062012
0.000557354
0.000477301
0.000411662
0.000320527
0.00019973
9.79149e-05
-1.3876e-05
-0.000147449
-0.000260952
-0.000374005
-0.000491497
-0.000576359
-0.00066077
-0.000744224
-0.000788074
-0.000826368
-0.000869821
-0.000883629
-0.000885461
-0.00089245
-0.000889053
-0.000873033
-0.000854345
-0.000838831
-0.000817722
-0.000788673
-0.000762006
-0.000738507
-0.000709518
-0.000678077
-0.000650306
-0.000623181
-0.000592745
-0.000562913
-0.000535424
-0.000507559
-0.000478412
-0.000450646
-0.000423914
-0.000396789
-0.000369507
-0.000343414
-0.000317596
-0.000291667
-0.000265989
-0.000241074
-0.000216121
-0.000191296
-0.000166728
-0.000142582
-0.000118324
-9.42914e-05
-7.03852e-05
-4.67111e-05
-2.29265e-05
6.39783e-07
2.42009e-05
4.76057e-05
7.11242e-05
9.44672e-05
0.000117862
0.000141129
0.000164535
0.000187779
0.000211072
0.00023428
0.000257645
0.000280781
0.000303962
0.000327141
0.000350403
0.000373283
0.000396298
0.000419384
0.000442251
0.000464596
0.000487363
0.000510023
0.00053183
0.000553289
0.000575547
0.000596758
0.000616386
0.000636538
0.000657177
0.000674621
0.000690582
0.000708202
0.000723705
0.000733565
0.000744244
0.000749995
0.000752916
0.000753225
0.000746836
0.000736137
0.00071796
0.000685235
0.000652903
0.000612212
0.000539287
0.000466998
0.000399699
0.00029077
0.000170831
6.76753e-05
-5.0538e-05
-0.000191001
-0.000315009
-0.000417789
-0.000533699
-0.000631664
-0.000700339
-0.000774886
-0.000824782
-0.000844796
-0.000880007
-0.000900873
-0.000888939
-0.000885043
-0.000885107
-0.000869998
-0.000844863
-0.000823908
-0.000806279
-0.000780666
-0.000749646
-0.000724075
-0.000699487
-0.000669773
-0.000639377
-0.000612754
-0.000585442
-0.000555969
-0.000527402
-0.00050084
-0.000473385
-0.000445471
-0.000418594
-0.000392665
-0.000366095
-0.000339829
-0.000314279
-0.000289145
-0.000263667
-0.000238715
-0.000214104
-0.000189698
-0.000165146
-0.000141077
-0.000117072
-9.32224e-05
-6.93073e-05
-4.57476e-05
-2.2098e-05
1.38658e-06
2.49369e-05
4.82518e-05
7.17157e-05
9.49922e-05
0.000118374
0.000141601
0.000164967
0.000188129
0.000211456
0.000234652
0.000257919
0.000280993
0.000304302
0.000327402
0.000350468
0.000373432
0.00039664
0.0004194
0.000442077
0.00046483
0.000487605
0.000509534
0.000531551
0.000553749
0.000575249
0.000595552
0.000616439
0.000636996
0.000655505
0.000673019
0.000691452
0.000707477
0.000720157
0.00073274
0.000746444
0.000750091
0.000755791
0.000758789
0.000750608
0.000735102
0.000718282
0.000695647
0.000654422
0.000592715
0.000539767
0.00047678
0.000359324
0.000251828
0.000166243
1.68675e-05
-0.000131602
-0.000240867
-0.000379715
-0.000511821
-0.0006052
-0.000713933
-0.000786814
-0.000822816
-0.000883032
-0.000917459
-0.00090648
-0.00091365
-0.000922241
-0.000906363
-0.000880782
-0.000864297
-0.000850645
-0.000822345
-0.000790389
-0.000769409
-0.000745866
-0.000713632
-0.000684205
-0.000660269
-0.000632395
-0.000601849
-0.000574496
-0.000548865
-0.000520574
-0.000492455
-0.000466315
-0.000440384
-0.000413196
-0.000387025
-0.000361708
-0.000336273
-0.00031046
-0.000285616
-0.00026095
-0.000236273
-0.00021158
-0.000187557
-0.000163418
-0.000139424
-0.000115461
-9.19113e-05
-6.81624e-05
-4.46355e-05
-2.10704e-05
2.2264e-06
2.57334e-05
4.90095e-05
7.23908e-05
9.55702e-05
0.000118964
0.000142131
0.000165433
0.000188573
0.000211927
0.000235026
0.000258268
0.000281399
0.000304694
0.00032765
0.000350802
0.000373881
0.000396938
0.000419566
0.000442553
0.000465357
0.000487739
0.00050977
0.000532399
0.00055427
0.000575185
0.000596283
0.000617882
0.00063725
0.000655535
0.000675037
0.000693435
0.000707278
0.000721319
0.000736711
0.000749386
0.00076101
0.000765938
0.000761807
0.000759512
0.000750693
0.000726979
0.000700324
0.000661185
0.000600992
0.000542521
0.000457869
0.000339994
0.00023723
0.00011189
-4.87391e-05
-0.000197507
-0.000335487
-0.00047849
-0.000629284
-0.000729637
-0.000816086
-0.000901483
-0.000937876
-0.000959088
-0.000991814
-0.000979497
-0.000958695
-0.000954328
-0.000933487
-0.000903016
-0.00087335
-0.00084799
-0.000823492
-0.00079116
-0.000759636
-0.000733818
-0.000706728
-0.000675699
-0.000647151
-0.000620907
-0.000593391
-0.000564635
-0.000537962
-0.000511881
-0.000485081
-0.000458178
-0.000432747
-0.00040718
-0.00038142
-0.000355942
-0.000331367
-0.000306435
-0.000281695
-0.000257213
-0.000233231
-0.000208918
-0.00018497
-0.000161105
-0.000137532
-0.000113711
-9.0264e-05
-6.67335e-05
-4.34246e-05
-1.9919e-05
3.27796e-06
2.66558e-05
4.9816e-05
7.31689e-05
9.62848e-05
0.000119606
0.000142696
0.000166012
0.000189126
0.000212409
0.000235468
0.000258803
0.000281893
0.000305081
0.000328116
0.000351437
0.000374344
0.000397327
0.000420303
0.000443387
0.000465778
0.000488425
0.000511144
0.0005334
0.000554779
0.000576895
0.000598637
0.000618863
0.000638621
0.000659559
0.000678297
0.000694485
0.000711729
0.000728923
0.000739994
0.000761459
0.000773948
0.00077698
0.000775981
0.000777146
0.000768521
0.000744744
0.000711801
0.000674397
0.000627461
0.000539631
0.000426171
0.00035083
0.000220633
1.07291e-05
-0.000114659
-0.000254432
-0.000476354
-0.000628345
-0.000751514
-0.00089485
-0.000962961
-0.00102809
-0.00110074
-0.0010772
-0.00105233
-0.0010754
-0.00104855
-0.000992889
-0.00095529
-0.000935761
-0.000902815
-0.00085174
-0.000818455
-0.000795878
-0.000760072
-0.000721794
-0.000695425
-0.000669251
-0.000637011
-0.000607042
-0.000582283
-0.000555414
-0.000526856
-0.00050065
-0.000476208
-0.000449956
-0.000423925
-0.000399296
-0.000375045
-0.000349768
-0.000325273
-0.000301313
-0.000277374
-0.000252986
-0.00022934
-0.000205709
-0.000182133
-0.00015837
-0.000135144
-0.000111707
-8.84276e-05
-6.50128e-05
-4.19606e-05
-1.86338e-05
4.47601e-06
2.77474e-05
5.07574e-05
7.40487e-05
9.70996e-05
0.000120344
0.000143381
0.000166688
0.000189734
0.000212996
0.000236088
0.000259412
0.000282433
0.000305712
0.000328837
0.000352085
0.000374994
0.000398252
0.000421284
0.000444222
0.000466876
0.00049
0.000512576
0.000534772
0.000556978
0.0005796
0.000600863
0.000621643
0.000643038
0.000664002
0.000682157
0.000700527
0.000719893
0.00073587
0.000747546
0.000778979
0.000784486
0.000794405
0.000806077
0.000798318
0.000782587
0.000776401
0.000747281
0.000690987
0.000637551
0.000556342
0.000444297
0.000325354
0.000154837
-1.47974e-05
-0.000186832
-0.00040476
-0.000596594
-0.000781004
-0.000922573
-0.00107679
-0.0011722
-0.00118876
-0.00121435
-0.00123578
-0.0011868
-0.00115069
-0.00110951
-0.00105914
-0.00101515
-0.000958028
-0.000914136
-0.000877127
-0.000830601
-0.000788218
-0.000756298
-0.00072268
-0.000686561
-0.000654968
-0.000627406
-0.000597875
-0.000568572
-0.000542082
-0.000516673
-0.000489857
-0.000464213
-0.000439841
-0.000415422
-0.000390349
-0.000366466
-0.000342805
-0.000318983
-0.000294992
-0.000271828
-0.000248411
-0.000225041
-0.000201633
-0.00017871
-0.000155428
-0.000132361
-0.000109197
-8.63278e-05
-6.31316e-05
-4.02022e-05
-1.70868e-05
5.8e-06
2.89742e-05
5.1898e-05
7.50571e-05
9.79934e-05
0.000121212
0.000144206
0.00016743
0.000190433
0.000213744
0.000236815
0.000260072
0.000283158
0.000306568
0.000329628
0.000352865
0.000376052
0.000399454
0.000422309
0.0004455
0.000468746
0.000491795
0.000514185
0.000537365
0.00056033
0.000582296
0.000604027
0.000627104
0.000648602
0.000668289
0.000689321
0.000711167
0.000728066
0.000743884
0.000763607
0.000794632
0.000807669
0.00082248
0.000829404
0.00082601
0.00082167
0.000810284
0.000779073
0.000730734
0.000659261
0.000579057
0.000482726
0.00028463
9.14056e-05
-5.74429e-06
-0.000286965
-0.000574897
-0.000698826
-0.000939344
-0.00115077
-0.00124189
-0.00137004
-0.00141068
-0.00132829
-0.00135616
-0.00134868
-0.00123207
-0.00116221
-0.00112175
-0.00107338
-0.000994762
-0.00092736
-0.000891816
-0.000847227
-0.000791151
-0.000750713
-0.000719174
-0.00068161
-0.00064415
-0.00061496
-0.000586959
-0.000556662
-0.000528351
-0.000503767
-0.000478365
-0.000452425
-0.000428044
-0.000405075
-0.000381052
-0.000357273
-0.000334288
-0.000311701
-0.00028835
-0.000265489
-0.000242827
-0.000220254
-0.00019722
-0.000174651
-0.000151942
-0.000129313
-0.000106387
-8.38204e-05
-6.09749e-05
-3.82692e-05
-1.5319e-05
7.36208e-06
3.03583e-05
5.31638e-05
7.62124e-05
9.90491e-05
0.000122194
0.000145115
0.000168296
0.000191298
0.000214577
0.000237606
0.000260932
0.000284088
0.000307454
0.00033057
0.000354045
0.000377293
0.000400653
0.00042384
0.000447432
0.000470615
0.000493838
0.000517081
0.00054064
0.000563428
0.000586349
0.000609551
0.000632589
0.000654335
0.000676641
0.000699256
0.000720338
0.000739584
0.000760273
0.000779889
0.000815558
0.000840489
0.000851762
0.000852966
0.000869472
0.000875993
0.000842024
0.000814183
0.000797726
0.000713794
0.000594197
0.000488927
0.000321513
0.000110235
-0.000142669
-0.00039412
-0.000545466
-0.000838459
-0.00113298
-0.00135691
-0.00142633
-0.00149884
-0.00158856
-0.0015693
-0.00144382
-0.00138296
-0.00132015
-0.00127613
-0.00117973
-0.00107599
-0.00103225
-0.000974628
-0.000896518
-0.000843776
-0.000805006
-0.00075624
-0.000708088
-0.000673066
-0.000640178
-0.000603853
-0.000571542
-0.000544999
-0.000517218
-0.000489152
-0.000464308
-0.000441146
-0.000416472
-0.000392697
-0.000370431
-0.000348205
-0.000325095
-0.000302948
-0.00028108
-0.00025897
-0.000236467
-0.000214612
-0.000192494
-0.000170291
-0.000147876
-0.000125826
-0.000103384
-8.10268e-05
-5.84606e-05
-3.61169e-05
-1.34034e-05
9.14622e-06
3.19402e-05
5.45525e-05
7.74992e-05
0.000100263
0.000123283
0.000146125
0.000169297
0.000192271
0.000215483
0.000238544
0.000261946
0.000285087
0.000308461
0.000331775
0.000355381
0.000378602
0.000402171
0.000425801
0.00044948
0.000472694
0.000496634
0.000520556
0.000543983
0.000567268
0.000591877
0.000615652
0.000638308
0.000662136
0.000687387
0.000709465
0.000730808
0.000755929
0.000779597
0.00079582
0.000845314
0.000865577
0.000883387
0.000902238
0.000914217
0.00091124
0.000905436
0.000890474
0.000839333
0.000769074
0.000672881
0.00050851
0.000363356
0.000168765
-0.000263629
-0.000454549
-0.000518042
-0.000924651
-0.00115464
-0.00142643
-0.00171825
-0.00174707
-0.00162797
-0.00167657
-0.00154391
-0.00144414
-0.00142069
-0.00132204
-0.00121861
-0.00111659
-0.00104946
-0.000990014
-0.000915271
-0.000853453
-0.000805546
-0.000755936
-0.000707087
-0.000666579
-0.000630332
-0.00059434
-0.000560532
-0.000531374
-0.000503928
-0.000476725
-0.000450889
-0.000427525
-0.000404418
-0.000381328
-0.000358934
-0.00033763
-0.000315903
-0.000294231
-0.000272791
-0.000251713
-0.00023009
-0.000208615
-0.000187066
-0.000165607
-0.000143691
-0.000121961
-9.99892e-05
-7.80686e-05
-5.57902e-05
-3.36892e-05
-1.12797e-05
1.1039e-05
3.36608e-05
5.61267e-05
7.89098e-05
0.000101554
0.000124488
0.000147286
0.000170377
0.000193299
0.000216533
0.000239634
0.000262982
0.000286172
0.000309725
0.000333098
0.00035668
0.000380199
0.000404107
0.000427712
0.000451584
0.000475577
0.000499844
0.000523665
0.00054805
0.00057269
0.000597221
0.000621378
0.000646645
0.000671881
0.000696427
0.000721147
0.000747309
0.00077223
0.000795852
0.000820416
0.000874912
0.000893964
0.000923633
0.000954644
0.000958657
0.000960825
0.000988175
0.000969233
0.000888202
0.000849457
0.000789118
0.0005805
0.000371479
0.000211775
-6.82154e-05
-0.000452008
-0.000862074
-0.000822604
-0.000959371
-0.00130648
-0.0013393
-0.00164817
-0.00174653
-0.00152617
-0.00160765
-0.00161441
-0.00151521
-0.00129384
-0.00122154
-0.00118838
-0.00106729
-0.000975105
-0.000932547
-0.000873506
-0.00080106
-0.000750234
-0.00071062
-0.000662956
-0.000617767
-0.000584718
-0.000552971
-0.000518565
-0.00048901
-0.000464794
-0.000439258
-0.000413667
-0.000391294
-0.000370345
-0.000348016
-0.000326414
-0.000306088
-0.00028569
-0.000264451
-0.00024386
-0.000223393
-0.000202612
-0.000181379
-0.00016052
-0.000139341
-0.000117991
-9.63428e-05
-7.48796e-05
-5.30125e-05
-3.11292e-05
-8.97932e-06
1.30604e-05
3.5473e-05
5.7816e-05
8.04245e-05
0.000102933
0.000125784
0.000148524
0.000171521
0.000194426
0.000217667
0.000240755
0.0002641
0.000287405
0.000311033
0.00033444
0.000358178
0.00038198
0.000406001
0.000429757
0.000454109
0.000478571
0.000502969
0.000527309
0.000552756
0.00057798
0.000602762
0.000628401
0.000655598
0.000681303
0.000706709
0.000735071
0.000764068
0.000788794
0.000815641
0.000848095
0.000901905
0.000937122
0.000966666
0.000990411
0.0010205
0.00104557
0.00104233
0.00103075
0.00103092
0.000963736
0.000817103
0.000713212
0.00054032
0.000246349
0.00018381
-0.000322126
-0.00111932
-0.000502799
-0.000447375
-0.00102669
-0.000535807
-0.00097438
-0.00120021
-0.00101227
-0.00157872
-0.0016938
-0.00144656
-0.00136255
-0.0012542
-0.00116041
-0.0010776
-0.00100531
-0.000935646
-0.000866013
-0.000807588
-0.000755316
-0.000703283
-0.00065636
-0.000614665
-0.000575573
-0.0005402
-0.000508818
-0.000478818
-0.000451039
-0.000426222
-0.000402782
-0.000379508
-0.000357842
-0.000337276
-0.000316766
-0.000296169
-0.000276387
-0.000256562
-0.000236512
-0.000216295
-0.000196346
-0.000175969
-0.000155447
-0.000134687
-0.000113959
-9.27816e-05
-7.1568e-05
-5.00669e-05
-2.85541e-05
-6.6635e-06
1.52021e-05
3.73713e-05
5.95175e-05
8.19872e-05
0.000104409
0.000127122
0.000149769
0.000172732
0.000195636
0.000218796
0.00024189
0.000265337
0.000288687
0.000312271
0.000335879
0.000359874
0.000383677
0.000407807
0.00043216
0.000456809
0.000481188
0.000506281
0.00053176
0.000557188
0.000582621
0.000609521
0.000636481
0.000662983
0.000690684
0.000720409
0.000748852
0.000777309
0.000809045
0.000841446
0.000870424
0.000932725
0.000976103
0.00100958
0.00103755
0.00108284
0.00111989
0.00111647
0.00112709
0.00115648
0.00107302
0.000931999
0.000882916
0.00073243
0.00039959
0.00013031
-0.000236806
-0.000586354
-0.000393175
-0.000275765
-0.000438054
-0.000471722
-0.000594715
-0.000477333
-0.000554069
-0.00106499
-0.00135014
-0.00136561
-0.00143169
-0.00128452
-0.00112579
-0.00108544
-0.00102326
-0.000927864
-0.000862846
-0.000816974
-0.000756201
-0.000694642
-0.000651319
-0.000612423
-0.000567923
-0.000528645
-0.000499074
-0.00046993
-0.000439619
-0.000413823
-0.000391925
-0.000369178
-0.000346727
-0.000326623
-0.0003074
-0.000287265
-0.0002676
-0.000248635
-0.00022949
-0.000209698
-0.000190179
-0.000170553
-0.000150597
-0.000130206
-0.000109906
-8.92405e-05
-6.83611e-05
-4.71513e-05
-2.595e-05
-4.36311e-06
1.7312e-05
3.92746e-05
6.12395e-05
8.35516e-05
0.000105873
0.000128461
0.000151043
0.000173946
0.000196811
0.000219939
0.000243077
0.000266529
0.000289907
0.000313593
0.000337351
0.000361403
0.000385375
0.000409817
0.000434413
0.000459225
0.000484099
0.000509786
0.000535599
0.000561534
0.000588076
0.000615898
0.000643449
0.000671291
0.000701073
0.000732256
0.000762017
0.000793318
0.000828926
0.000864048
0.000895418
0.000966478
0.0010033
0.00105133
0.00110213
0.00113697
0.00117342
0.00122692
0.00124657
0.0012116
0.00121964
0.00123242
0.00100054
0.000737724
0.000492711
7.34678e-07
-0.000237549
-0.000346195
-0.000509749
-0.00055142
-0.000355192
-0.000470307
-0.000411354
-0.00036091
-0.000398922
-0.000572273
-0.000842608
-0.00120581
-0.00130023
-0.00122553
-0.00117757
-0.00109207
-0.00099426
-0.000931474
-0.000877176
-0.000807588
-0.000747735
-0.000700696
-0.000649401
-0.000599712
-0.000561471
-0.000525873
-0.000488866
-0.00045751
-0.000431741
-0.000405546
-0.000380239
-0.000358637
-0.00033845
-0.000317516
-0.000297672
-0.000279131
-0.000260405
-0.000241169
-0.000222499
-0.000203838
-0.000184725
-0.000165262
-0.000145929
-0.000126185
-0.000106122
-8.57555e-05
-6.5331e-05
-4.44679e-05
-2.34363e-05
-2.11178e-06
1.92959e-05
4.10732e-05
6.29298e-05
8.50663e-05
0.000107249
0.000129756
0.0001523
0.000175097
0.000197918
0.000221074
0.00024423
0.000267616
0.000291086
0.000314932
0.000338703
0.000362775
0.000387116
0.000411799
0.000436336
0.000461519
0.0004872
0.000512968
0.000538807
0.000566094
0.000593753
0.000621092
0.000649712
0.000680726
0.000710933
0.000741236
0.00077566
0.000811939
0.000845144
0.000881916
0.000925793
0.000993958
0.001038
0.00109088
0.00115054
0.00119786
0.00124046
0.00130738
0.0013569
0.00134768
0.00136173
0.00138036
0.00128196
0.000968975
0.000236368
-0.000325738
-0.000352955
-0.000442109
-0.000486306
-0.000436862
-0.000390944
-0.000465257
-0.00038249
-0.00035102
-0.000371613
-0.000395078
-0.000424446
-0.000741626
-0.0011455
-0.00125977
-0.00117109
-0.00104342
-0.000987722
-0.000947546
-0.000873767
-0.000798151
-0.000746864
-0.000700005
-0.000644982
-0.00059446
-0.000555383
-0.000519147
-0.000482129
-0.000449649
-0.000422867
-0.000397269
-0.00037223
-0.000349953
-0.00032988
-0.000309829
-0.000290203
-0.000271667
-0.000253554
-0.000235019
-0.000216603
-0.0001983
-0.000179788
-0.000160798
-0.000141742
-0.000122402
-0.00010276
-8.2707e-05
-6.25264e-05
-4.19748e-05
-2.11983e-05
-8.18587e-08
2.11521e-05
4.27332e-05
6.44474e-05
8.64526e-05
0.000108546
0.000130948
0.00015342
0.000176163
0.00019898
0.000222086
0.000245233
0.000268674
0.000292207
0.000316034
0.000339924
0.000364198
0.000388618
0.00041337
0.000438308
0.000463818
0.000489552
0.000515745
0.000542449
0.000570012
0.000597906
0.000626613
0.000656479
0.000687574
0.000719142
0.000752322
0.000787863
0.000824907
0.000862291
0.00090308
0.00094853
0.0010156
0.00107663
0.00112764
0.00117892
0.00125394
0.0013259
0.00137093
0.00142831
0.00151072
0.0015176
0.00146291
0.00158903
0.00118448
3.62621e-05
-0.000483451
-0.00044171
-0.000399841
-0.000371061
-0.00041487
-0.000475099
-0.000371466
-0.000360459
-0.00041938
-0.000372328
-0.000263334
-0.000260659
-0.000472671
-0.000951993
-0.00118098
-0.00110424
-0.00105959
-0.0010083
-0.000920275
-0.000853365
-0.000812372
-0.000752588
-0.000684204
-0.000638089
-0.000599149
-0.000550683
-0.000507685
-0.000477303
-0.000446905
-0.000414555
-0.000388407
-0.000366868
-0.000344042
-0.000321899
-0.00030299
-0.000284822
-0.000265691
-0.000247348
-0.000229915
-0.000212035
-0.00019358
-0.000175437
-0.000157146
-0.000138313
-0.000119099
-9.98584e-05
-8.01864e-05
-6.01424e-05
-3.97867e-05
-1.9286e-05
1.62924e-06
2.27656e-05
4.4184e-05
6.57409e-05
8.76445e-05
0.000109684
0.000131978
0.000154377
0.000177097
0.000199906
0.000222942
0.000246101
0.00026961
0.000293154
0.000316954
0.000341011
0.000365439
0.000389833
0.000414714
0.000440101
0.000465733
0.000491423
0.000518257
0.000545713
0.000573082
0.000601337
0.000631817
0.000662267
0.000692678
0.00072648
0.000762973
0.000797469
0.000834496
0.000879151
0.000923497
0.000964089
0.00103716
0.00109449
0.00115702
0.00122104
0.00129291
0.00137477
0.00144441
0.00150816
0.0016076
0.00166632
0.00165473
0.00171852
0.00070758
-0.000306424
-0.000334203
-0.000402323
-0.000411701
-0.000404487
-0.000414627
-0.000410451
-0.000367419
-0.000387216
-0.000355321
-0.000323437
-0.000288325
-0.000291189
-0.000302207
-0.00068752
-0.00110489
-0.00108354
-0.00106044
-0.000984756
-0.000913456
-0.000861785
-0.000804427
-0.000742511
-0.000687682
-0.000637741
-0.000590053
-0.000546649
-0.000507375
-0.000471549
-0.000439644
-0.000410976
-0.000384425
-0.000360292
-0.000338411
-0.000317801
-0.000298028
-0.000279355
-0.000261308
-0.000243426
-0.000225634
-0.000208041
-0.000190273
-0.000172269
-0.000154013
-0.00013557
-0.000116717
-9.75686e-05
-7.80682e-05
-5.83033e-05
-3.81361e-05
-1.77244e-05
3.02991e-06
2.4004e-05
4.53162e-05
6.68088e-05
8.86047e-05
0.000110555
0.000132798
0.000155179
0.00017783
0.000200598
0.000223657
0.000246838
0.000270284
0.000293872
0.000317802
0.00034186
0.000366246
0.000390898
0.000415981
0.000441248
0.000467065
0.000493392
0.00052025
0.000547526
0.000575871
0.000605013
0.000634872
0.000665894
0.000698791
0.000732685
0.000768052
0.000806122
0.000846708
0.000888844
0.00093462
0.000984464
0.00105256
0.00110489
0.00117697
0.00125722
0.00132133
0.00139424
0.00150097
0.00160367
0.00166856
0.00173373
0.00186851
0.00157734
0.000297657
-0.000408549
-0.000288596
-0.000370145
-0.000429573
-0.000419573
-0.00037404
-0.000359855
-0.00040868
-0.000392572
-0.000308981
-0.000308955
-0.000322282
-0.00025833
-0.000217785
-0.000500003
-0.000978493
-0.00110483
-0.00101703
-0.0009537
-0.000928624
-0.000870607
-0.000787853
-0.00073403
-0.00069493
-0.000637675
-0.00058103
-0.000543542
-0.000508571
-0.000467788
-0.000433829
-0.000408488
-0.000382334
-0.000355864
-0.000334238
-0.000315108
-0.000294939
-0.000275583
-0.000258196
-0.000240859
-0.000222814
-0.000205251
-0.000187981
-0.000170167
-0.000151882
-0.000133648
-0.000115084
-9.60219e-05
-7.66012e-05
-5.70192e-05
-3.70049e-05
-1.66518e-05
4.00764e-06
2.48651e-05
4.60977e-05
6.75505e-05
8.92737e-05
0.000111162
0.000133371
0.000155734
0.000178337
0.000201086
0.000224156
0.000247338
0.000270755
0.000294385
0.000318376
0.00034243
0.000366832
0.000391645
0.00041681
0.000442047
0.00046805
0.000494708
0.000521552
0.000548873
0.000577853
0.00060739
0.000636977
0.000668622
0.000702933
0.000736725
0.000771752
0.000812371
0.000854963
0.000895286
0.000942449
0.000999363
0.00105741
0.00112381
0.00118665
0.00125556
0.00134311
0.00143318
0.00151676
0.00161174
0.00171237
0.00185154
0.00200957
0.00144345
0.000341868
-0.000372891
-0.000427462
-0.000381026
-0.000358858
-0.000386853
-0.000406577
-0.000398053
-0.000365229
-0.0003387
-0.000357022
-0.000320563
-0.000280834
-0.00024817
-0.000197511
-0.000443208
-0.000842396
-0.00104976
-0.00102325
-0.00098278
-0.000909574
-0.000846689
-0.000802501
-0.000744372
-0.000679821
-0.000631697
-0.000590031
-0.000542668
-0.000500114
-0.00046757
-0.000436334
-0.000404802
-0.000378382
-0.000355947
-0.000333432
-0.000311938
-0.000293022
-0.000274958
-0.000256535
-0.000238764
-0.000221659
-0.00020429
-0.000186528
-0.000168885
-0.000151048
-0.000132747
-0.000114072
-9.5231e-05
-7.59729e-05
-5.63345e-05
-3.63541e-05
-1.61406e-05
4.46775e-06
2.53423e-05
4.65197e-05
6.78985e-05
8.9607e-05
0.000111504
0.000133666
0.000155986
0.000178607
0.000201374
0.000224383
0.000247556
0.000271055
0.000294674
0.000318568
0.000342734
0.000367277
0.000391932
0.000417061
0.000442688
0.000468692
0.000494952
0.000522227
0.000550211
0.000578511
0.000607791
0.000639015
0.000670763
0.000703183
0.000738601
0.000776618
0.00081436
0.00085521
0.000902421
0.000950779
0.000999086
0.00105741
0.00112381
0.00118665
0.00125556
0.00134311
0.00143318
0.00151676
0.00161174
0.00171237
0.00185154
0.00200957
0.00144345
0.000341868
-0.000372891
-0.000427462
-0.000381026
-0.000358858
-0.000386853
-0.000406577
-0.000398053
-0.000365229
-0.0003387
-0.000357022
-0.000320563
-0.000280834
-0.00024817
-0.000197511
-0.000443208
-0.000842396
-0.00104976
-0.00102325
-0.00098278
-0.000909574
-0.000846689
-0.000802501
-0.000744372
-0.000679821
-0.000631697
-0.000590031
-0.000542668
-0.000500114
-0.00046757
-0.000436334
-0.000404802
-0.000378382
-0.000355947
-0.000333432
-0.000311938
-0.000293022
-0.000274958
-0.000256535
-0.000238764
-0.000221659
-0.00020429
-0.000186528
-0.000168885
-0.000151048
-0.000132747
-0.000114072
-9.5231e-05
-7.59729e-05
-5.63345e-05
-3.63541e-05
-1.61406e-05
4.46775e-06
2.53423e-05
4.65197e-05
6.78985e-05
8.9607e-05
0.000111504
0.000133666
0.000155986
0.000178607
0.000201374
0.000224383
0.000247556
0.000271055
0.000294674
0.000318568
0.000342734
0.000367277
0.000391932
0.000417061
0.000442688
0.000468692
0.000494952
0.000522227
0.000550211
0.000578511
0.000607791
0.000639015
0.000670763
0.000703183
0.000738601
0.000776618
0.00081436
0.00085521
0.000902421
0.000950779
0.000999086
0.00105256
0.00110489
0.00117697
0.00125722
0.00132133
0.00139424
0.00150097
0.00160367
0.00166856
0.00173373
0.00186851
0.00157734
0.000297657
-0.000408549
-0.000288596
-0.000370145
-0.000429573
-0.000419573
-0.00037404
-0.000359855
-0.00040868
-0.000392572
-0.000308981
-0.000308955
-0.000322282
-0.00025833
-0.000217785
-0.000500003
-0.000978493
-0.00110483
-0.00101703
-0.0009537
-0.000928624
-0.000870607
-0.000787853
-0.00073403
-0.00069493
-0.000637675
-0.00058103
-0.000543542
-0.000508571
-0.000467788
-0.000433829
-0.000408488
-0.000382334
-0.000355864
-0.000334238
-0.000315108
-0.000294939
-0.000275583
-0.000258196
-0.000240859
-0.000222814
-0.000205251
-0.000187981
-0.000170167
-0.000151882
-0.000133648
-0.000115084
-9.60219e-05
-7.66012e-05
-5.70192e-05
-3.70049e-05
-1.66518e-05
4.00764e-06
2.48651e-05
4.60977e-05
6.75505e-05
8.92737e-05
0.000111162
0.000133371
0.000155734
0.000178337
0.000201086
0.000224156
0.000247338
0.000270755
0.000294385
0.000318376
0.00034243
0.000366832
0.000391645
0.00041681
0.000442047
0.00046805
0.000494708
0.000521552
0.000548873