# vtk DataFile Version 3.0
fluid_state
ASCII
DATASET RECTILINEAR_GRID
DIMENSIONS 100 40 1
X_COORDINATES 100 float
0.5 1.5 2.5 3.5 4.5 5.5 6.5 7.5 8.5 9.5 10.5 11.5 12.5 13.5 14.5 15.5 16.5 17.5 18.5 19.5 20.5 21.5 22.5 23.5 24.5 25.5 26.5 27.5 28.5 29.5 30.5 31.5 32.5 33.5 34.5 35.5 36.5 37.5 38.5 39.5 40.5 41.5 42.5 43.5 44.5 45.5 46.5 47.5 48.5 49.5 50.5 51.5 52.5 53.5 54.5 55.5 56.5 57.5 58.5 59.5 60.5 61.5 62.5 63.5 64.5 65.5 66.5 67.5 68.5 69.5 70.5 71.5 72.5 73.5 74.5 75.5 76.5 77.5 78.5 79.5 80.5 81.5 82.5 83.5 84.5 85.5 86.5 87.5 88.5 89.5 90.5 91.5 92.5 93.5 94.5 95.5 96.5 97.5 98.5 99.5 
Y_COORDINATES 40 float
0.5 1.5 2.5 3.5 4.5 5.5 6.5 7.5 8.5 9.5 10.5 11.5 12.5 13.5 14.5 15.5 16.5 17.5 18.5 19.5 20.5 21.5 22.5 23.5 24.5 25.5 26.5 27.5 28.5 29.5 30.5 31.5 32.5 33.5 34.5 35.5 36.5 37.5 38.5 39.5 
Z_COORDINATES 1 float
0
POINT_DATA 4000
SCALARS density_difference float 1
LOOKUP_TABLE default
0.000648303
0.000654466
0.000658644
0.000661247
0.000659889
0.000651852
0.000637691
0.000622269
0.00059981
0.000560963
0.000519833
0.00047652
0.000411235
0.000338474
0.000267179
0.000178898
8.50961e-05
-6.0747e-06
-0.00010569
-0.000199759
-0.000284216
-0.00037395
-0.000448479
-0.000505828
-0.000565919
-0.000611654
-0.000638361
-0.000666643
-0.00068568
-0.000689932
-0.000693348
-0.000694365
-0.000687274
-0.000675449
-0.000664019
-0.000652305
-0.000635444
-0.00061642
-0.000600256
-0.000583375
-0.000562667
-0.00054267
-0.000524848
-0.000505472
-0.000484396
-0.000464815
-0.000445945
-0.000425761
-0.000405273
-0.000385889
-0.00036637
-0.000346149
-0.000326152
-0.000306678
-0.000286842
-0.000266784
-0.000246974
-0.000227291
-0.0002073
-0.000187298
-0.000167385
-0.000147403
-0.000127195
-0.000106977
-8.66767e-05
-6.62233e-05
-4.55627e-05
-2.48023e-05
-3.85271e-06
1.72822e-05
3.86543e-05
6.01948e-05
8.19414e-05
0.000103877
0.000126072
0.000148406
0.000170879
0.000193531
0.000216393
0.000239229
0.000262106
0.000285148
0.000308207
0.000330955
0.000353722
0.000376591
0.000399039
0.000420903
0.000442943
0.000464771
0.000485448
0.000505568
0.000526099
0.000545434
0.000562855
0.000580331
0.000597788
0.000612187
0.000624644
0.000637555
0.000642067
0.000647543
0.000651873
0.000653488
0.000649721
0.000638027
0.000625711
0.000611729
0.000580011
0.000539081
0.000508091
0.000457851
0.000383341
0.00032022
0.000253871
0.000159255
6.54255e-05
-1.60094e-05
-0.000109025
-0.00020727
-0.000286449
-0.000365034
-0.000441702
-0.000495112
-0.00054633
-0.000598739
-0.000622176
-0.00064004
-0.000667266
-0.000676374
-0.000671343
-0.000672583
-0.000672992
-0.000662924
-0.000647354
-0.00063684
-0.000625981
-0.00060792
-0.000588651
-0.000574014
-0.000557437
-0.000536969
-0.000517627
-0.000500715
-0.00048162
-0.000461221
-0.000442115
-0.000423802
-0.000403913
-0.000384012
-0.000364854
-0.000345746
-0.000325744
-0.00030614
-0.000286748
-0.000267221
-0.000247254
-0.000227671
-0.000207971
-0.000188165
-0.000168117
-0.000148293
-0.00012819
-0.000108025
-8.7638e-05
-6.73082e-05
-4.6624e-05
-2.58881e-05
-4.87677e-06
1.61951e-05
3.76433e-05
5.91345e-05
8.09528e-05
0.000102875
0.00012513
0.000147381
0.000169979
0.000192626
0.000215474
0.000238236
0.000261326
0.000284276
0.000307217
0.000330007
0.000353038
0.000375561
0.000397863
0.000420017
0.000442156
0.000463214
0.000483982
0.000504632
0.000524617
0.000542821
0.000560959
0.000578699
0.00059449
0.000607967
0.000621586
0.000633557
0.000638045
0.00064621
0.000649489
0.00064638
0.00064238
0.000635749
0.000621496
0.000596074
0.000568703
0.000540398
0.000492564
0.000430929
0.000380649
0.00031242
0.000221547
0.000143511
6.0205e-05
-4.04308e-05
-0.000127231
-0.000213679
-0.00030385
-0.000371722
-0.000438412
-0.000506927
-0.000545936
-0.000580378
-0.000620521
-0.000639324
-0.000647007
-0.000659912
-0.000665738
-0.000661549
-0.000653657
-0.000649428
-0.000641092
-0.00062552
-0.000610789
-0.000599768
-0.000583587
-0.000564536
-0.000548149
-0.000532754
-0.000513486
-0.000494365
-0.000476925
-0.000459061
-0.000439173
-0.000420362
-0.000401977
-0.000383001
-0.000363225
-0.000344405
-0.000325307
-0.000305917
-0.000286256
-0.000267177
-0.000247603
-0.000228026
-0.000208276
-0.000188814
-0.00016886
-0.000149026
-0.000128942
-0.000108974
-8.85501e-05
-6.82307e-05
-4.75582e-05
-2.6919e-05
-5.82221e-06
1.52236e-05
3.66798e-05
5.8133e-05
8.00585e-05
0.000101935
0.00012421
0.000146475
0.000169186
0.00019174
0.000214635
0.000237482
0.000260641
0.000283421
0.000306506
0.000329445
0.00035238
0.000374682
0.000397357
0.0004196
0.000441291
0.00046227
0.000483765
0.000504051
0.000523123
0.000541878
0.000560932
0.00057713
0.000591911
0.000607141
0.000620977
0.000629785
0.000639761
0.000645144
0.000647542
0.000647016
0.000642699
0.000634009
0.000618806
0.000593173
0.000568762
0.000536751
0.000480696
0.000425652
0.000376141
0.000293529
0.000202986
0.000127097
3.86879e-05
-6.76845e-05
-0.000159775
-0.000239482
-0.000328793
-0.000405314
-0.000461416
-0.000523548
-0.000567957
-0.000589892
-0.000623351
-0.000648368
-0.000647213
-0.000652334
-0.000660257
-0.000657395
-0.000646021
-0.000637519
-0.000631171
-0.000619447
-0.000601969
-0.000588654
-0.000575995
-0.000559274
-0.000540603
-0.000525224
-0.000508827
-0.000490363
-0.000471674
-0.000454842
-0.000436567
-0.00041766
-0.000398921
-0.000381028
-0.000361891
-0.000342877
-0.000323899
-0.000305252
-0.000285715
-0.000266574
-0.000247236
-0.000228042
-0.000208239
-0.000188829
-0.000169042
-0.000149361
-0.000129202
-0.000109322
-8.89582e-05
-6.86936e-05
-4.79666e-05
-2.73909e-05
-6.28431e-06
1.47272e-05
3.62328e-05
5.76653e-05
7.96161e-05
0.000101453
0.000123809
0.000146079
0.000168781
0.000191317
0.00021436
0.000237173
0.000260267
0.000283136
0.000306418
0.00032917
0.000352056
0.000374669
0.000397431
0.000419235
0.000441138
0.000462664
0.000483774
0.000503483
0.000523453
0.00054261
0.000560367
0.00057653
0.000593112
0.000607543
0.000619395
0.000629865
0.000643122
0.000646173
0.000650834
0.00065356
0.00064723
0.000634051
0.000621624
0.000604059
0.000571564
0.000524513
0.000485126
0.000437433
0.000350151
0.000269324
0.000206871
9.72746e-05
-1.35606e-05
-9.56081e-05
-0.000198055
-0.000298825
-0.000371315
-0.000456731
-0.000517674
-0.000550599
-0.000602733
-0.000639399
-0.000638735
-0.00065248
-0.000668848
-0.000666717
-0.000654987
-0.000650937
-0.000649514
-0.000636531
-0.000618528
-0.000610375
-0.000599905
-0.000581667
-0.000564518
-0.000552814
-0.000536774
-0.000518051
-0.000501308
-0.000486356
-0.000467975
-0.000449653
-0.00043236
-0.000415263
-0.000396141
-0.000377938
-0.000359784
-0.000341493
-0.000322152
-0.000303704
-0.000284774
-0.000265842
-0.000246319
-0.000227423
-0.000207883
-0.000188505
-0.000168662
-0.00014921
-0.00012911
-0.000109229
-8.88599e-05
-6.87278e-05
-4.79668e-05
-2.74001e-05
-6.29673e-06
1.46564e-05
3.62298e-05
5.76348e-05
7.95904e-05
0.000101428
0.000123857
0.000146073
0.000168808
0.000191405
0.000214492
0.000237224
0.000260431
0.00028341
0.000306646
0.000329332
0.000352493
0.000375193
0.000397754
0.000419646
0.00044206
0.000463454
0.000484204
0.000504467
0.000525124
0.000543567
0.00056108
0.000578735
0.000595698
0.000608472
0.000621045
0.000634108
0.000646637
0.000655637
0.000660465
0.000657695
0.000655298
0.000648242
0.000631156
0.00060972
0.00057968
0.000535009
0.000491994
0.000428778
0.000341225
0.000266942
0.000177389
5.71454e-05
-5.06426e-05
-0.000150518
-0.000258934
-0.000371981
-0.000449324
-0.000520432
-0.00059061
-0.000627192
-0.000651162
-0.000686661
-0.000688201
-0.000682886
-0.000689416
-0.000683675
-0.00067021
-0.000657502
-0.000646029
-0.0006365
-0.00062
-0.000603346
-0.000590457
-0.000577502
-0.000559668
-0.00054366
-0.00052901
-0.000513502
-0.000495462
-0.000479336
-0.000462954
-0.000445915
-0.000427679
-0.000410897
-0.000393154
-0.000375229
-0.000356699
-0.000339092
-0.000320399
-0.000301927
-0.000282993
-0.000264605
-0.000245276
-0.000226358
-0.000206934
-0.000187863
-0.000168023
-0.000148601
-0.000128593
-0.000108851
-8.84394e-05
-6.83538e-05
-4.76267e-05
-2.7121e-05
-5.96937e-06
1.49554e-05
3.65291e-05
5.79e-05
7.99213e-05
0.000101754
0.000124178
0.00014639
0.000169237
0.000191818
0.000214877
0.000237693
0.00026106
0.000283938
0.000307181
0.000330143
0.000353414
0.000375865
0.000398678
0.000421087
0.000443306
0.000464418
0.000486072
0.000506855
0.000526656
0.000545411
0.000564881
0.000582164
0.000597629
0.000612795
0.000627909
0.000638097
0.000656723
0.000667374
0.000670607
0.000669195
0.000670868
0.00066504
0.00064588
0.000620552
0.000595152
0.000559424
0.000493565
0.000412053
0.000359305
0.00026548
0.000113014
2.27015e-05
-7.52322e-05
-0.000237649
-0.00035163
-0.000444579
-0.000555199
-0.000613857
-0.000669373
-0.000737695
-0.000732392
-0.000723713
-0.000754436
-0.000747317
-0.000715407
-0.000698044
-0.000693708
-0.000679353
-0.000648533
-0.000631988
-0.00062389
-0.000604895
-0.000581883
-0.000569465
-0.0005564
-0.000537801
-0.000519802
-0.000506725
-0.000490611
-0.000472886
-0.000456171
-0.000441171
-0.000423459
-0.000406003
-0.000388856
-0.000372148
-0.000353617
-0.000335914
-0.000317867
-0.000299968
-0.000280932
-0.000262704
-0.000243798
-0.000225096
-0.000205609
-0.000186741
-0.000167101
-0.000147744
-0.000127719
-0.000108129
-8.77708e-05
-6.77038e-05
-4.69802e-05
-2.65549e-05
-5.38342e-06
1.55264e-05
3.71009e-05
5.84575e-05
8.05246e-05
0.000102332
0.000124788
0.000147044
0.000169926
0.000192482
0.000215644
0.000238548
0.000261905
0.000284813
0.000308285
0.000331322
0.000354539
0.000377203
0.000400394
0.000422771
0.000444997
0.000466706
0.000488812
0.000509372
0.000529551
0.000549507
0.000569245
0.000586168
0.000603038
0.000620032
0.000634664
0.000644906
0.000671299
0.000676687
0.000684809
0.000693702
0.000689075
0.000676899
0.000672109
0.000651741
0.000610657
0.000570737
0.000514011
0.000434101
0.000350577
0.000229206
0.000108751
-8.54923e-06
-0.000165725
-0.00030855
-0.00043836
-0.00054766
-0.000670112
-0.00075165
-0.000777788
-0.000809765
-0.000842472
-0.000821481
-0.00080814
-0.000790802
-0.000764359
-0.000744151
-0.000710515
-0.000686938
-0.000669082
-0.000642647
-0.000617521
-0.000602445
-0.000584752
-0.000564057
-0.000546245
-0.000532489
-0.000515326
-0.000498117
-0.000482417
-0.000467728
-0.000450378
-0.000434129
-0.000418006
-0.000401869
-0.00038407
-0.000367492
-0.000350193
-0.000332867
-0.000314545
-0.00029715
-0.000278749
-0.000260573
-0.000241668
-0.00022339
-0.00020414
-0.000185276
-0.000165729
-0.000146618
-0.000126648
-0.000107075
-8.67933e-05
-6.68413e-05
-4.61054e-05
-2.56967e-05
-4.56117e-06
1.63046e-05
3.79229e-05
5.92796e-05
8.13323e-05
0.000103142
0.00012568
0.000147942
0.000170814
0.000193448
0.000216737
0.00023961
0.000262997
0.000286136
0.000309733
0.000332666
0.00035611
0.000379228
0.000402386
0.000424672
0.000447653
0.000469942
0.000491614
0.000512564
0.000534455
0.000554557
0.000573414
0.000592461
0.000611991
0.000627307
0.000641756
0.000658023
0.000684281
0.000694559
0.000706769
0.00071324
0.000710713
0.000706811
0.000701083
0.000678572
0.000641329
0.000592835
0.000540346
0.000470123
0.000330589
0.000199052
0.000137731
-6.04785e-05
-0.000267873
-0.000354814
-0.000528095
-0.00069301
-0.000769765
-0.000878934
-0.000932734
-0.000888115
-0.000928528
-0.000943884
-0.000868418
-0.000831816
-0.000815587
-0.000790551
-0.000740525
-0.000698558
-0.000681125
-0.000657067
-0.000621478
-0.000598731
-0.000583077
-0.000562312
-0.000539816
-0.000524554
-0.00050923
-0.000491642
-0.000474353
-0.000460336
-0.000444353
-0.000427818
-0.000411485
-0.000396439
-0.000379405
-0.00036269
-0.000345715
-0.000329234
-0.000311231
-0.000293857
-0.000275869
-0.000258175
-0.000239377
-0.000221215
-0.000202272
-0.000183628
-0.00016412
-0.000145136
-0.00012533
-0.00010584
-8.55813e-05
-6.57149e-05
-4.50352e-05
-2.46522e-05
-3.52714e-06
1.73125e-05
3.89341e-05
6.0281e-05
8.23543e-05
0.000104197
0.000126753
0.000149019
0.000171978
0.000194684
0.000217973
0.000240917
0.000264498
0.000287699
0.000311299
0.000334494
0.000358236
0.000381338
0.000404659
0.000427563
0.000450832
0.000473063
0.000495434
0.000517424
0.000539379
0.000559748
0.0005804
0.00060065
0.000619882
0.000636806
0.000654617
0.000671289
0.000700249
0.000719762
0.000729463
0.00073095
0.000743789
0.000749543
0.000725457
0.000704903
0.000696729
0.000639262
0.000553755
0.000485482
0.000376149
0.000230354
5.86031e-05
-0.000117818
-0.000217475
-0.00042045
-0.000644885
-0.00081971
-0.000886631
-0.000964244
-0.00105536
-0.00107176
-0.000996684
-0.000972468
-0.000942698
-0.000925424
-0.000865636
-0.000796306
-0.000774208
-0.000740465
-0.00068666
-0.000654914
-0.00063495
-0.000605444
-0.000575119
-0.000556998
-0.000539358
-0.000518083
-0.000499204
-0.000485331
-0.000468789
-0.000451723
-0.00043631
-0.000422198
-0.000405485
-0.000389555
-0.0003739
-0.000358283
-0.000340936
-0.000324589
-0.000307622
-0.00029061
-0.00027251
-0.000255203
-0.000236961
-0.000218886
-0.000200002
-0.000181672
-0.000162402
-0.000143439
-0.000123733
-0.000104421
-8.42391e-05
-6.43801e-05
-4.37742e-05
-2.3465e-05
-2.34181e-06
1.85044e-05
4.00885e-05
6.14301e-05
8.35492e-05
0.00010541
0.000127955
0.000150284
0.000173332
0.00019605
0.000219374
0.000242491
0.000266182
0.000289375
0.000313151
0.000336688
0.000360489
0.000383625
0.00040749
0.000430895
0.000454052
0.000476658
0.000500283
0.00052269
0.000544332
0.000566237
0.000589093
0.000608934
0.000628264
0.000649573
0.000669708
0.000683725
0.000722097
0.000738678
0.000753024
0.000766772
0.000777128
0.000776392
0.000771632
0.000762361
0.00073121
0.00068134
0.000616321
0.00051364
0.000421606
0.000290135
-5.11051e-06
-0.000129609
-0.000171436
-0.000465827
-0.000631971
-0.000839379
-0.00108705
-0.00115178
-0.00109183
-0.00116294
-0.00107779
-0.00102192
-0.00103312
-0.000972654
-0.000904771
-0.000836904
-0.000792956
-0.000756564
-0.000706714
-0.000665685
-0.000636343
-0.000607015
-0.000576792
-0.000553359
-0.000533116
-0.000512983
-0.000493173
-0.000477057
-0.000461196
-0.000445148
-0.000428916
-0.00041456
-0.000399226
-0.000383745
-0.000367789
-0.000352737
-0.000336381
-0.000320152
-0.000303294
-0.000286897
-0.000269304
-0.000252046
-0.000234064
-0.000216392
-0.000197727
-0.000179461
-0.000160421
-0.000141657
-0.000122044
-0.000102793
-8.27498e-05
-6.29648e-05
-4.24e-05
-2.21171e-05
-1.05078e-06
1.97789e-05
4.13615e-05
6.27263e-05
8.4831e-05
0.000106706
0.000129309
0.0001517
0.000174738
0.000197531
0.000221006
0.00024418
0.000267874
0.00029131
0.000315325
0.000338847
0.00036281
0.000386514
0.000410581
0.000433928
0.000457795
0.000481337
0.000504872
0.000527605
0.000551094
0.00057393
0.000596323
0.000618102
0.000640736
0.000661919
0.000682193
0.000702019
0.000743717
0.000758754
0.000781781
0.000805232
0.000808907
0.000810761
0.000832816
0.000821505
0.000763896
0.000742098
0.000713753
0.000570874
0.000432374
0.000349261
0.000170385
-9.74718e-05
-0.000409575
-0.000392914
-0.000510453
-0.000786606
-0.000831979
-0.00109831
-0.001193
-0.00104256
-0.00114138
-0.0011742
-0.00111867
-0.000962281
-0.000918236
-0.00090564
-0.000816516
-0.000749139
-0.000724694
-0.000686467
-0.000635258
-0.00060359
-0.00058165
-0.000552472
-0.000524608
-0.00050723
-0.000489719
-0.000469377
-0.00045202
-0.00043874
-0.000422913
-0.000406663
-0.000392015
-0.000378242
-0.000362201
-0.0003467
-0.000331371
-0.000315941
-0.000299019
-0.000282773
-0.000265929
-0.000248976
-0.000231043
-0.000213641
-0.000195396
-0.00017723
-0.000158297
-0.000139735
-0.000120321
-0.000101097
-8.11534e-05
-6.14718e-05
-4.098e-05
-2.06939e-05
3.08321e-07
2.1115e-05
4.26947e-05
6.40811e-05
8.61611e-05
0.000108079
0.000130725
0.000153147
0.00017621
0.000199122
0.000222669
0.000245884
0.000269706
0.000293364
0.000317455
0.000341085
0.000365399
0.000389438
0.000413567
0.000437275
0.000461906
0.000485842
0.000509487
0.000533269
0.000558158
0.000581254
0.000604127
0.000628561
0.000653283
0.000674085
0.000696482
0.00072227
0.00076279
0.000789169
0.00081164
0.000830056
0.000852462
0.000870223
0.000870318
0.000864452
0.000866681
0.00082719
0.000734789
0.000671069
0.000572022
0.000388789
0.000366654
-1.48295e-05
-0.000649066
-0.000241432
-0.000228473
-0.000662637
-0.000290025
-0.000654475
-0.000813121
-0.00064466
-0.00112954
-0.00125813
-0.00108077
-0.00103606
-0.000958474
-0.000890541
-0.000834678
-0.000782818
-0.00073118
-0.000682929
-0.000644125
-0.00060995
-0.00057674
-0.000548648
-0.000524088
-0.000501502
-0.000481337
-0.000464013
-0.000446527
-0.000430359
-0.000415448
-0.0004011
-0.000385687
-0.000371245
-0.000356683
-0.000341908
-0.000326176
-0.000311053
-0.000295141
-0.000279067
-0.00026222
-0.000245722
-0.000228301
-0.000210928
-0.000192853
-0.000175
-0.00015629
-0.000137747
-0.000118505
-9.9432e-05
-7.95829e-05
-5.99129e-05
-3.95304e-05
-1.92936e-05
1.6773e-06
2.25015e-05
4.40287e-05
6.54188e-05
8.75232e-05
0.000109492
0.000132111
0.000154589
0.000177753
0.00020072
0.000224252
0.000247649
0.000271654
0.000295308
0.000319491
0.000343566
0.000368048
0.000392009
0.000416658
0.00044115
0.000465673
0.000489761
0.000514935
0.000539537
0.000563817
0.000588396
0.000614284
0.000638538
0.000662842
0.000688709
0.000714782
0.000737873
0.000783729
0.000816321
0.00084124
0.000861405
0.00089504
0.000922484
0.00092028
0.00092913
0.000957042
0.000904541
0.000812028
0.000805207
0.000726474
0.000484787
0.000278472
-3.59372e-05
-0.000359716
-0.00024499
-0.000147375
-0.000270014
-0.000291629
-0.000389174
-0.000293565
-0.000329791
-0.000737313
-0.00100102
-0.00103922
-0.0011046
-0.000999857
-0.000875823
-0.000848359
-0.000804897
-0.000731424
-0.000683556
-0.000654052
-0.000612968
-0.000571286
-0.000545707
-0.000523754
-0.000496863
-0.000473656
-0.000458128
-0.000441699
-0.000423578
-0.000408094
-0.000395156
-0.000380266
-0.000365129
-0.000350961
-0.000337131
-0.000321668
-0.000306452
-0.000291108
-0.000275553
-0.000258877
-0.000242506
-0.000225528
-0.000208396
-0.000190459
-0.000172758
-0.000154321
-0.000135873
-0.000116743
-9.77716e-05
-7.80628e-05
-5.84172e-05
-3.8113e-05
-1.79134e-05
3.00354e-06
2.38378e-05
4.53258e-05
6.6738e-05
8.88402e-05
0.000110838
0.000133466
0.000156021
0.00017921
0.000202231
0.00022585
0.000249376
0.000273423
0.000297208
0.000321608
0.000345851
0.00037043
0.000394731
0.000419775
0.000444474
0.000469308
0.000494144
0.000519928
0.000544883
0.000570008
0.000596011
0.000622893
0.000647912
0.000674027
0.000702676
0.000730634
0.000754927
0.000806507
0.000833784
0.000869353
0.000905543
0.000930472
0.000957254
0.000996057
0.00101023
0.000990686
0.00100558
0.00102926
0.000887658
0.000721292
0.000518735
9.23782e-05
-0.000123655
-0.000223173
-0.000341111
-0.000357575
-0.00021382
-0.000296218
-0.00023034
-0.000196765
-0.00022645
-0.000360319
-0.000595538
-0.000920292
-0.0010111
-0.000965314
-0.000934876
-0.000863738
-0.00078604
-0.000739837
-0.000699754
-0.000648649
-0.000607728
-0.000577906
-0.000545261
-0.000514405
-0.000492989
-0.000472965
-0.000451353
-0.000433487
-0.000419396
-0.000403698
-0.00038802
-0.000374285
-0.000361029
-0.000346133
-0.000331717
-0.00031755
-0.000302935
-0.000287226
-0.000271894
-0.000256016
-0.000239755
-0.000222756
-0.000205951
-0.000188396
-0.000170693
-0.000152375
-0.000134139
-0.00011517
-9.61897e-05
-7.66011e-05
-5.70489e-05
-3.68072e-05
-1.65905e-05
4.24919e-06
2.50631e-05
4.65451e-05
6.79954e-05
9.00535e-05
0.00011208
0.000134762
0.000157365
0.000180525
0.000203656
0.000227399
0.000250938
0.000275008
0.000299083
0.000323626
0.000347803
0.000372661
0.000397528
0.000422538
0.00044723
0.000473055
0.000498588
0.000523868
0.000549612
0.000576994
0.000603022
0.000629103
0.000657579
0.000687056
0.000713469
0.000742572
0.000775946
0.000824811
0.000856567
0.00089506
0.0009379
0.000971042
0.000999954
0.00104865
0.00108627
0.00108109
0.00109577
0.00113023
0.00108509
0.000854394
0.000264317
-0.00020555
-0.000240256
-0.000297307
-0.000320989
-0.000277587
-0.000234673
-0.000291164
-0.000222694
-0.000185765
-0.000200983
-0.000222122
-0.00023826
-0.000528574
-0.000901842
-0.00100814
-0.000939727
-0.000835744
-0.000788328
-0.000757397
-0.000700826
-0.000643633
-0.000608635
-0.000578819
-0.000542918
-0.000511056
-0.00048901
-0.000468776
-0.000447245
-0.000428585
-0.000413873
-0.000398904
-0.000383522
-0.000369337
-0.000356222
-0.000342101
-0.000327803
-0.000313602
-0.000299386
-0.000284173
-0.000268892
-0.000253191
-0.000237259
-0.000220523
-0.000203769
-0.000186422
-0.000168905
-0.000150725
-0.000132539
-0.000113725
-9.48224e-05
-7.53128e-05
-5.57883e-05
-3.5633e-05
-1.54343e-05
5.36341e-06
2.61858e-05
4.76317e-05
6.90932e-05
9.11491e-05
0.000113222
0.000135891
0.000158532
0.000181751
0.00020495
0.000228688
0.000252336
0.000276548
0.000300675
0.000325263
0.00034973
0.000374783
0.000399659
0.000424959
0.000450229
0.000476167
0.000501827
0.000528044
0.000554564
0.000581886
0.000608831
0.000636832
0.000665909
0.000695815
0.00072504
0.00075668
0.00079101
0.000838709
0.000882909
0.000918768
0.000954399
0.00100805
0.00105793
0.00108813
0.00112937
0.00119168
0.0012021
0.00117514
0.00128176
0.000957306
5.52856e-05
-0.000347248
-0.000313678
-0.000262903
-0.000232813
-0.000268171
-0.000301463
-0.000214115
-0.00020829
-0.000245067
-0.000203908
-0.000114413
-9.99535e-05
-0.000294904
-0.000751825
-0.000967163
-0.000895888
-0.000857203
-0.000812417
-0.000739739
-0.000687697
-0.000658052
-0.000614929
-0.000566986
-0.000538463
-0.000515982
-0.000485972
-0.000460316
-0.000444472
-0.000427618
-0.000408375
-0.000393169
-0.000380799
-0.000366216
-0.000351424
-0.00033833
-0.0003252
-0.000310467
-0.000295995
-0.000281648
-0.000266676
-0.000250755
-0.000235007
-0.000218747
-0.000202026
-0.000184682
-0.000167367
-0.0001494
-0.000131197
-0.000112462
-9.3676e-05
-7.42511e-05
-5.47083e-05
-3.46255e-05
-1.44699e-05
6.30225e-06
2.71499e-05
4.85487e-05
7.0013e-05
9.20861e-05
0.000114194
0.000136831
0.000159523
0.000182807
0.000206029
0.000229755
0.000253553
0.000277865
0.000301961
0.000326648
0.000351443
0.000376527
0.000401343
0.000427119
0.000452878
0.000478558
0.000504469
0.000531968
0.000558725
0.000585383
0.000614007
0.000644301
0.000672195
0.000701957
0.000736613
0.000770371
0.000800413
0.000852642
0.000893604
0.000937955
0.000982209
0.00103209
0.00108905
0.00113694
0.00117962
0.001253
0.00130396
0.0013016
0.00135027
0.000559638
-0.000227375
-0.000242558
-0.000280249
-0.000277143
-0.000265352
-0.000263515
-0.000256557
-0.000216479
-0.000224724
-0.000197954
-0.000165807
-0.000130233
-0.000134743
-0.000139615
-0.00051428
-0.000918337
-0.000889154
-0.000865308
-0.000800591
-0.000738729
-0.000696755
-0.000653766
-0.000608805
-0.000570995
-0.000538894
-0.000509455
-0.000483563
-0.000460794
-0.000440544
-0.00042265
-0.000406492
-0.000391011
-0.000376597
-0.000362907
-0.000349398
-0.000335614
-0.000322067
-0.000308239
-0.000294083
-0.000279392
-0.000264587
-0.000249175
-0.000233431
-0.000217125
-0.000200628
-0.000183504
-0.000166155
-0.000148258
-0.000130192
-0.000111539
-9.27372e-05
-7.33889e-05
-5.39021e-05
-3.38514e-05
-1.36823e-05
7.04114e-06
2.78752e-05
4.92705e-05
7.07632e-05
9.28047e-05
0.000114923
0.000137598
0.000160326
0.000183574
0.000206857
0.000230682
0.000254477
0.000278763
0.000303064
0.000327869
0.000352554
0.000377784
0.000403047
0.00042876
0.000454368
0.000480771
0.000507229
0.000534148
0.000561341
0.000589767
0.000618212
0.000647564
0.00067812
0.000710238
0.000742634
0.0007774
0.000814152
0.000862581
0.000899161
0.000950747
0.00100698
0.00104958
0.00109855
0.00117433
0.00124582
0.00128961
0.00134046
0.00144915
0.00122205
0.000232951
-0.000309422
-0.000212474
-0.000256499
-0.000295205
-0.000280143
-0.00023201
-0.0002182
-0.000251438
-0.000229885
-0.000161794
-0.000154967
-0.000158627
-0.000108902
-6.70741e-05
-0.000337937
-0.000802044
-0.000917628
-0.000835783
-0.000779459
-0.000755033
-0.000706282
-0.000641574
-0.000603173
-0.000578076
-0.000539546
-0.0005026
-0.000481631
-0.0004624
-0.000438013
-0.000418489
-0.000405161
-0.000390059
-0.000373746
-0.000360337
-0.000348081
-0.000333987
-0.000319874
-0.000306601
-0.000292859
-0.00027793
-0.000263105
-0.000248067
-0.000232408
-0.00021603
-0.000199641
-0.000182701
-0.000165349
-0.000147471
-0.000129491
-0.000110915
-9.21e-05
-7.27912e-05
-5.33467e-05
-3.33237e-05
-1.31414e-05
7.55032e-06
2.83738e-05
4.97672e-05
7.12771e-05
9.32971e-05
0.000115428
0.000138126
0.00016087
0.000184103
0.000207437
0.000231307
0.0002551
0.000279401
0.000303828
0.000328673
0.000353323
0.000378692
0.000404182
0.000429833
0.000455461
0.000482328
0.000509003
0.000535637
0.000563295
0.000592722
0.000620907
0.000649913
0.000682402
0.000715812
0.000746491
0.000782259
0.000824314
0.000865557
0.000912854
0.000956433
0.00100353
0.00106477
0.00112629
0.00118178
0.00124752
0.00132037
0.00142152
0.0015417
0.00110702
0.000258767
-0.000289564
-0.000314861
-0.000270113
-0.000242435
-0.000252396
-0.00026334
-0.000247544
-0.000215579
-0.000191382
-0.000197656
-0.000165303
-0.000130101
-9.32686e-05
-4.86816e-05
-0.00028797
-0.000680245
-0.000883286
-0.000847282
-0.000803574
-0.000740484
-0.000689
-0.000654711
-0.000611824
-0.000566227
-0.000535327
-0.0005103
-0.000481113
-0.000455798
-0.000438187
-0.00042085
-0.000402459
-0.000387204
-0.000374227
-0.000360093
-0.000345908
-0.000332879
-0.000319822
-0.000305685
-0.00029158
-0.000277426
-0.000262723
-0.000247256
-0.000231718
-0.000215686
-0.000199197
-0.000182141
-0.000164945
-0.00014717
-0.000129106
-0.00011054
-9.18111e-05
-7.2518e-05
-5.30319e-05
-3.3041e-05
-1.28944e-05
7.80508e-06
2.86534e-05
5.0017e-05
7.15127e-05
9.35603e-05
0.000115712
0.000138366
0.000161123
0.000184423
0.000207743
0.000231546
0.00025544
0.000279833
0.000304125
0.000328964
0.00035391
0.000379231
0.000404418
0.000430433
0.000456508
0.000482784
0.000509319
0.000537205
0.000564779
0.000592729
0.000622274
0.000653423
0.000683449
0.000715628
0.000751673
0.000787934
0.000823083
0.000865557
0.000912854
0.000956433
0.00100353
0.00106477
0.00112629
0.00118178
0.00124752
0.00132037
0.00142152
0.0015417
0.00110702
0.000258767
-0.000289564
-0.000314861
-0.000270113
-0.000242435
-0.000252396
-0.00026334
-0.000247544
-0.000215579
-0.000191382
-0.000197656
-0.000165303
-0.000130101
-9.32686e-05
-4.86816e-05
-0.00028797
-0.000680245
-0.000883286
-0.000847282
-0.000803574
-0.000740484
-0.000689
-0.000654711
-0.000611824
-0.000566227
-0.000535327
-0.0005103
-0.000481113
-0.000455798
-0.000438187
-0.00042085
-0.000402459
-0.000387204
-0.000374227
-0.000360093
-0.000345908
-0.000332879
-0.000319822
-0.000305685
-0.00029158
-0.000277426
-0.000262723
-0.000247256
-0.000231718
-0.000215686
-0.000199197
-0.000182141
-0.000164945
-0.00014717
-0.000129106
-0.00011054
-9.18111e-05
-7.2518e-05
-5.30319e-05
-3.3041e-05
-1.28944e-05
7.80508e-06
2.86534e-05
5.0017e-05
7.15127e-05
9.35603e-05
0.000115712
0.000138366
0.000161123
0.000184423
0.000207743
0.000231546
0.00025544
0.000279833
0.000304125
0.000328964
0.00035391
0.000379231
0.000404418
0.000430433
0.000456508
0.000482784
0.000509319
0.000537205
0.000564779
0.000592729
0.000622274
0.000653423
0.000683449
0.000715628
0.000751673
0.000787934
0.000823083
0.000862581
0.000899161
0.000950747
0.00100698
0.00104958
0.00109855
0.00117433
0.00124582
0.00128961
0.00134046
0.00144915
0.00122205
0.000232951
-0.000309422
-0.000212474
-0.000256499
-0.000295205
-0.000280143
-0.00023201
-0.0002182
-0.000251438
-0.000229885
-0.000161794
-0.000154967
-0.000158627
-0.000108902
-6.70741e-05
-0.000337937
-0.000802044
-0.000917628
-0.000835783
-0.000779459
-0.000755033
-0.000706282
-0.000641574
-0.000603173
-0.000578076
-0.000539546
-0.0005026
-0.000481631
-0.0004624
-0.000438013
-0.000418489
-0.000405161
-0.000390059
-0.000373746
-0.000360337
-0.000348081
-0.000333987
-0.000319874
-0.000306601
-0.000292859
-0.00027793
-0.000263105
-0.000248067
-0.000232408
-0.00021603
-0.000199641
-0.000182701
-0.000165349
-0.000147471
-0.000129491
-0.000110915
-9.21e-05
-7.27912e-05
-5.33467e-05
-3.33237e-05
-1.31414e-05
7.55032e-06
2.83738e-05
4.97672e-05
7.12771e-05
9.32971e-05