# vtk DataFile Version 3.0
fluid_state
ASCII
DATASET RECTILINEAR_GRID
DIMENSIONS 100 40 1
X_COORDINATES 100 float
0.5 1.5 2.5 3.5 4.5 5.5 6.5 7.5 8.5 9.5 10.5 11.5 12.5 13.5 14.5 15.5 16.5 17.5 18.5 19.5 20.5 21.5 22.5 23.5 24.5 25.5 26.5 27.5 28.5 29.5 30.5 31.5 32.5 33.5 34.5 35.5 36.5 37.5 38.5 39.5 40.5 41.5 42.5 43.5 44.5 45.5 46.5 47.5 48.5 49.5 50.5 51.5 52.5 53.5 54.5 55.5 56.5 57.5 58.5 59.5 60.5 61.5 62.5 63.5 64.5 65.5 66.5 67.5 68.5 69.5 70.5 71.5 72.5 73.5 74.5 75.5 76.5 77.5 78.5 79.5 80.5 81.5 82.5 83.5 84.5 85.5 86.5 87.5 88.5 89.5 90.5 91.5 92.5 93.5 94.5 95.5 96.5 97.5 98.5 99.5 
Y_COORDINATES 40 float
0.5 1.5 2.5 3.5 4.5 5.5 6.5 7.5 8.5 9.5 10.5 11.5 12.5 13.5 14.5 15.5 16.5 17.5 18.5 19.5 20.5 21.5 22.5 23.5 24.5 25.5 26.5 27.5 28.5 29.5 30.5 31.5 32.5 33.5 34.5 35.5 36.5 37.5 38.5 39.5 
Z_COORDINATES 1 float
0
POINT_DATA 4000
SCALARS density_difference float 1
LOOKUP_TABLE default
0.000758428
0.000765915
0.000771866
0.000775622
0.000774134
0.00076495
0.00074784
0.000728831
0.000700312
0.000650636
0.000598384
0.00054186
0.000455622
0.00036134
0.000267724
0.000150222
2.72263e-05
-9.20693e-05
-0.0002235
-0.000345482
-0.000454006
-0.000569574
-0.000662592
-0.000732231
-0.000805232
-0.000857056
-0.000884402
-0.000913345
-0.000928264
-0.000924518
-0.000920755
-0.000912584
-0.000893237
-0.00086928
-0.000846574
-0.000822188
-0.000791645
-0.000760034
-0.000731898
-0.000702272
-0.000669127
-0.000637731
-0.000608755
-0.000578213
-0.000546717
-0.000517346
-0.000488978
-0.000459679
-0.000430727
-0.0004033
-0.000376126
-0.000348659
-0.000321894
-0.000295986
-0.000270073
-0.000244254
-0.000219035
-0.000194203
-0.000169347
-0.000144719
-0.000120455
-9.6333e-05
-7.22271e-05
-4.83234e-05
-2.45819e-05
-8.95807e-07
2.2761e-05
4.63008e-05
6.97845e-05
9.3229e-05
0.000116674
0.000140071
0.000163426
0.000186755
0.000210144
0.000233477
0.000256729
0.000280022
0.000303408
0.00032661
0.000349722
0.00037302
0.000396292
0.00041914
0.000442067
0.000465303
0.000488049
0.000510201
0.000532906
0.000555634
0.000576988
0.000598101
0.000620271
0.000641102
0.00065977
0.000679396
0.000699316
0.0007154
0.000729838
0.000745666
0.000749239
0.000756691
0.000761954
0.000763762
0.000759947
0.00074623
0.000730221
0.000713137
0.000673261
0.000620959
0.000580367
0.000514948
0.000418088
0.00033508
0.000246604
0.00012271
-1.79124e-06
-0.000109031
-0.000230243
-0.000359287
-0.000461787
-0.000560737
-0.000657578
-0.000722288
-0.000783675
-0.000843902
-0.000866066
-0.000881638
-0.000907972
-0.000909233
-0.000893652
-0.000886167
-0.000877021
-0.000853869
-0.000825248
-0.000803248
-0.000780263
-0.000748494
-0.000716772
-0.000690529
-0.000661948
-0.000629375
-0.000599127
-0.000571615
-0.000542084
-0.000511649
-0.00048335
-0.00045607
-0.000427656
-0.000399645
-0.000372995
-0.000346623
-0.00031982
-0.000293739
-0.000268338
-0.000242996
-0.000217608
-0.00019284
-0.000168316
-0.000143842
-0.000119456
-9.54808e-05
-7.15247e-05
-4.76569e-05
-2.38721e-05
-3.18072e-07
2.33078e-05
4.68153e-05
7.02944e-05
9.36611e-05
0.000117119
0.000140436
0.000163789
0.000187098
0.000210463
0.000233667
0.000256984
0.000280267
0.000303505
0.000326594
0.000349892
0.000373046
0.000395999
0.000418918
0.00044209
0.000464788
0.000487176
0.000509798
0.000532436
0.000554001
0.000575426
0.000597334
0.000618355
0.000637658
0.000657428
0.000677205
0.00069435
0.000709676
0.000725658
0.000739483
0.000743285
0.000753415
0.000756838
0.000753603
0.000748944
0.000740716
0.000722985
0.000691376
0.000656136
0.000620189
0.000557459
0.000477427
0.000411824
0.00032071
0.000199955
9.816e-05
-1.35905e-05
-0.000147142
-0.000260607
-0.000373644
-0.0004911
-0.000575954
-0.000660337
-0.000743787
-0.000787617
-0.000825916
-0.000869354
-0.000883172
-0.000884997
-0.000892
-0.0008886
-0.000872598
-0.000853914
-0.00083842
-0.000817315
-0.000788291
-0.000761633
-0.000738159
-0.000709181
-0.000677767
-0.000650009
-0.000622913
-0.000592491
-0.000562689
-0.000535215
-0.000507381
-0.00047825
-0.000450515
-0.000423799
-0.000396704
-0.00036944
-0.000343378
-0.000317576
-0.000291676
-0.000266014
-0.000241128
-0.000216191
-0.000191393
-0.00016684
-0.000142721
-0.000118475
-9.44674e-05
-7.05725e-05
-4.69215e-05
-2.31464e-05
3.98743e-07
2.39523e-05
4.73379e-05
7.08509e-05
9.41771e-05
0.000117568
0.00014082
0.000164225
0.000187457
0.000210752
0.000233949
0.000257317
0.000280446
0.000303633
0.000326806
0.000350075
0.000372951
0.000395977
0.000419062
0.00044194
0.000464285
0.000487066
0.000509728
0.000531551
0.000553014
0.000575289
0.000596505
0.000616152
0.000636311
0.000656969
0.000674422
0.000690404
0.000708033
0.000723559
0.000733428
0.000744131
0.000749892
0.00075284
0.000753158
0.000746799
0.000736111
0.000717964
0.000685253
0.000652955
0.000612278
0.000539392
0.000467121
0.000399861
0.000290953
0.000171059
6.79233e-05
-5.02472e-05
-0.000190689
-0.000314653
-0.000417422
-0.000533294
-0.000631249
-0.000699897
-0.000774443
-0.000824317
-0.00084434
-0.000879535
-0.000900413
-0.000888472
-0.000884594
-0.000884654
-0.000869565
-0.00084443
-0.000823501
-0.000805873
-0.000780287
-0.000749274
-0.000723731
-0.00069915
-0.000669466
-0.000639082
-0.00061249
-0.000585189
-0.000555748
-0.000527194
-0.000500665
-0.000473223
-0.000445342
-0.00041848
-0.000392583
-0.000366028
-0.000339794
-0.000314259
-0.000289156
-0.000263692
-0.000238771
-0.000214173
-0.000189796
-0.000165256
-0.000141215
-0.000117221
-9.33985e-05
-6.94926e-05
-4.59577e-05
-2.23158e-05
1.14597e-06
2.46906e-05
4.79847e-05
7.14449e-05
9.47029e-05
0.000118083
0.000141294
0.000164661
0.000187808
0.000211138
0.000234323
0.000257594
0.000280659
0.000303975
0.000327068
0.000350143
0.000373101
0.000396321
0.000419078
0.000441768
0.000464521
0.000487311
0.00050924
0.000531274
0.000553474
0.000574993
0.000595299
0.000616207
0.000636768
0.000655299
0.000672819
0.000691274
0.000707308
0.000720011
0.000732602
0.000746331
0.000749985
0.000755713
0.00075872
0.000750568
0.000735073
0.000718285
0.000695662
0.000654472
0.000592782
0.000539872
0.0004769
0.000359491
0.000252016
0.000166474
1.71225e-05
-0.000131297
-0.000240545
-0.000379347
-0.000511437
-0.000604781
-0.000713505
-0.000786355
-0.000822364
-0.000882556
-0.000916993
-0.000906002
-0.000913189
-0.00092177
-0.000905911
-0.000880327
-0.000863867
-0.000850211
-0.000821938
-0.000789985
-0.000769034
-0.000745493
-0.000713291
-0.000683871
-0.000659966
-0.000632099
-0.000601587
-0.000574244
-0.000548647
-0.000520366
-0.000492282
-0.000466154
-0.000440257
-0.000413082
-0.000386945
-0.000361641
-0.00033624
-0.000310439
-0.000285629
-0.000260974
-0.00023633
-0.000211648
-0.000187656
-0.000163527
-0.000139563
-0.000115609
-9.2088e-05
-6.83464e-05
-4.48461e-05
-2.12867e-05
1.98552e-06
2.54887e-05
4.87423e-05
7.21216e-05
9.52807e-05
0.000118674
0.000141824
0.000165128
0.000188252
0.00021161
0.000234696
0.000257945
0.000281065
0.000304369
0.000327315
0.000350478
0.00037355
0.00039662
0.000419243
0.000442245
0.000465047
0.000487446
0.000509475
0.000532123
0.000553994
0.00057493
0.000596029
0.00061765
0.000637021
0.000655329
0.000674835
0.000693257
0.000707106
0.000721172
0.000736571
0.000749271
0.000760899
0.000765857
0.000761733
0.000759467
0.000750657
0.000726977
0.000700332
0.000661229
0.000601052
0.000542621
0.000457987
0.000340161
0.000237418
0.000112129
-4.84746e-05
-0.000197188
-0.000335148
-0.000478103
-0.000628877
-0.000729191
-0.000815637
-0.000901002
-0.000937402
-0.000958595
-0.000991334
-0.000979004
-0.000958224
-0.000953849
-0.000933031
-0.000902554
-0.000872918
-0.000847556
-0.000823085
-0.000790754
-0.000759263
-0.000733446
-0.000706388
-0.000675366
-0.000646852
-0.000620613
-0.000593133
-0.000564385
-0.000537748
-0.000511675
-0.000484911
-0.000458018
-0.000432624
-0.000407067
-0.000381343
-0.000355876
-0.000331336
-0.000306415
-0.000281709
-0.000257238
-0.000233289
-0.000208986
-0.000185071
-0.000161214
-0.000137672
-0.000113859
-9.0441e-05
-6.69162e-05
-4.36352e-05
-2.01336e-05
3.03737e-06
2.64129e-05
4.95493e-05
7.29019e-05
9.59961e-05
0.000119319
0.00014239
0.000165709
0.000188807
0.000212095
0.000235139
0.000258482
0.00028156
0.000304758
0.000327783
0.000351116
0.000374014
0.000397012
0.000419981
0.000443082
0.000465468
0.000488134
0.00051085
0.000533125
0.000554503
0.000576641
0.000598383
0.000618632
0.000638392
0.000659353
0.000678094
0.000694308
0.000711555
0.000728774
0.000739851
0.00076134
0.000773834
0.000776895
0.000775901
0.000777097
0.000768481
0.000744736
0.000711805
0.00067444
0.000627515
0.00053973
0.000426294
0.000350998
0.000220824
1.09847e-05
-0.00011438
-0.000254099
-0.000475989
-0.000627928
-0.000751083
-0.000894373
-0.000962484
-0.00102758
-0.00110024
-0.00107669
-0.00105184
-0.0010749
-0.00104807
-0.0009924
-0.000954832
-0.000935296
-0.000902377
-0.000851304
-0.00081805
-0.000795471
-0.000759698
-0.000721424
-0.000695088
-0.000668918
-0.000636713
-0.00060675
-0.000582028
-0.000555166
-0.000526644
-0.000500447
-0.000476041
-0.000449799
-0.000423804
-0.000399185
-0.000374971
-0.000349703
-0.000325245
-0.000301293
-0.00027739
-0.000253011
-0.0002294
-0.000205777
-0.000182235
-0.000158479
-0.000135285
-0.000111855
-8.86053e-05
-6.51952e-05
-4.21717e-05
-1.88479e-05
4.23508e-06
2.75052e-05
5.04905e-05
7.37824e-05
9.68107e-05
0.000120058
0.000143074
0.000166386
0.000189414
0.000212683
0.000235759
0.000259092
0.0002821
0.000305389
0.000328503
0.000351765
0.000374664
0.000397937
0.000420962
0.000443917
0.000466566
0.000489708
0.000512281
0.000534497
0.000556701
0.000579345
0.000600607
0.00062141
0.000642806
0.000663794
0.000681951
0.000700347
0.000719715
0.000735719
0.000747399
0.000778854
0.000784366
0.000794313
0.000805988
0.000798261
0.000782537
0.000776383
0.000747273
0.000691019
0.000637596
0.000556433
0.000444411
0.000325521
0.000155038
-1.45356e-05
-0.000186537
-0.000404399
-0.000596201
-0.00078055
-0.000922105
-0.00107628
-0.00117169
-0.00118823
-0.00121383
-0.00123524
-0.00118628
-0.00115017
-0.00110902
-0.00105864
-0.00101468
-0.000957559
-0.000913696
-0.000876685
-0.000830192
-0.000787812
-0.000755923
-0.000722308
-0.000686224
-0.000654637
-0.00062711
-0.000597586
-0.000568319
-0.000541836
-0.000516464
-0.000489656
-0.000464049
-0.000439686
-0.000415304
-0.000390241
-0.000366394
-0.000342742
-0.000318957
-0.000294974
-0.000271846
-0.000248438
-0.000225103
-0.000201702
-0.000178813
-0.000155538
-0.000132503
-0.000109344
-8.65058e-05
-6.33136e-05
-4.04132e-05
-1.73002e-05
5.5595e-06
2.87331e-05
5.16317e-05
7.47922e-05
9.77055e-05
0.000120927
0.000143901
0.00016713
0.000190114
0.000213433
0.000236487
0.000259754
0.000282826
0.000306248
0.000329296
0.000352546
0.000375723
0.000399141
0.000421988
0.000445197
0.000468436
0.000491505
0.000513891
0.000537091
0.000560053
0.000582042
0.000603772
0.000626872
0.000648369
0.00066808
0.000689114
0.000710985
0.000727885
0.00074373
0.000763455
0.000794502
0.000807542
0.000822381
0.000829309
0.000825945
0.00082161
0.000810258
0.000779057
0.000730755
0.000659301
0.000579144
0.000482833
0.000284802
9.16182e-05
-5.47781e-06
-0.000286649
-0.000574499
-0.000698403
-0.000938853
-0.00115026
-0.00124134
-0.00136948
-0.0014101
-0.00132774
-0.0013556
-0.00134815
-0.00123153
-0.00116171
-0.00112125
-0.00107291
-0.000994287
-0.00092692
-0.000891374
-0.000846814
-0.000790744
-0.000750339
-0.000718803
-0.000681273
-0.000643821
-0.000614665
-0.000586671
-0.000556411
-0.000528108
-0.000503561
-0.000478167
-0.000452265
-0.000427893
-0.00040496
-0.000380946
-0.000357204
-0.000334229
-0.000311677
-0.000288335
-0.00026551
-0.000242856
-0.000220318
-0.000197291
-0.000174755
-0.000152053
-0.000129456
-0.000106535
-8.39991e-05
-6.11575e-05
-3.84807e-05
-1.55328e-05
7.12125e-06
3.01169e-05
5.28974e-05
7.59474e-05
9.8761e-05
0.00012191
0.000144809
0.000167996
0.000190979
0.000214266
0.000237279
0.000260615
0.000283756
0.000307133
0.000330238
0.000353726
0.000376964
0.00040034
0.000423518
0.000447128
0.000470304
0.000493547
0.000516785
0.000540365
0.00056315
0.000586093
0.000609293
0.000632354
0.0006541
0.000676429
0.000699044
0.000720153
0.000739399
0.000760114
0.000779732
0.000815421
0.000840353
0.000851652
0.00085286
0.000869393
0.000875918
0.000841983
0.000814152
0.000797728
0.000713816
0.00059427
0.000489027
0.000321678
0.000110444
-0.000142378
-0.000393777
-0.000545056
-0.000838
-0.00113244
-0.00135635
-0.00142573
-0.00149825
-0.00158796
-0.00156872
-0.00144325
-0.00138242
-0.00131962
-0.00127561
-0.00117922
-0.00107551
-0.00103177
-0.000974178
-0.000896075
-0.000843363
-0.000804596
-0.000755862
-0.000707718
-0.000672729
-0.000639848
-0.000603559
-0.000571257
-0.000544749
-0.000516978
-0.000488947
-0.000464114
-0.000440988
-0.000416325
-0.000392585
-0.00037033
-0.000348139
-0.000325039
-0.000302926
-0.000281068
-0.000258992
-0.000236499
-0.000214677
-0.000192566
-0.000170397
-0.000147988
-0.00012597
-0.000103533
-8.12057e-05
-5.86437e-05
-3.63282e-05
-1.36173e-05
8.90593e-06
3.16991e-05
5.42869e-05
7.72347e-05
9.9976e-05
0.000122999
0.000145821
0.000168998
0.000191954
0.000215173
0.000238218
0.000261629
0.000284757
0.000308142
0.000331443
0.000355064
0.000378274
0.000401859
0.000425481
0.000449177
0.000472385
0.000496344
0.000520261
0.000543708
0.00056699
0.000591621
0.000615393
0.000638072
0.000661899
0.000687174
0.000709252
0.000730619
0.00075574
0.000779433
0.000795657
0.000845168
0.000865433
0.000883268
0.00090212
0.000914125
0.000911156
0.000905379
0.000890425
0.000839324
0.000769083
0.000672935
0.000508604
0.000363515
0.000168968
-0.000263313
-0.000454185
-0.000517626
-0.000924167
-0.00115408
-0.00142584
-0.0017176
-0.00174644
-0.00162736
-0.00167598
-0.00154333
-0.00144358
-0.00142015
-0.00132153
-0.0012181
-0.00111611
-0.00104899
-0.000989563
-0.000914828
-0.000853038
-0.000805138
-0.000755556
-0.000706717
-0.00066624
-0.000630004
-0.000594045
-0.000560249
-0.000531125
-0.000503691
-0.000476522
-0.000450698
-0.000427369
-0.000404274
-0.000381219
-0.000358836
-0.000337566
-0.00031585
-0.000294212
-0.000272783
-0.000251737
-0.000230124
-0.000208682
-0.000187141
-0.000165713
-0.000143806
-0.000122106
-0.00010014
-7.82483e-05
-5.59749e-05
-3.3901e-05
-1.14948e-05
1.07985e-05
3.34187e-05
5.58611e-05
7.86445e-05
0.000101267
0.000124204
0.000146982
0.000170078
0.000192982
0.000216223
0.000239308
0.000262665
0.000285842
0.000309406
0.000332767
0.000356362
0.000379871
0.000403794
0.000427391
0.000451279
0.000475267
0.000499552
0.000523369
0.000547773
0.00057241
0.000596962
0.000621118
0.000646406
0.000671641
0.000696209
0.000720929
0.000747114
0.000772036
0.000795682
0.000820246
0.000874757
0.000893811
0.000923501
0.000954512
0.000958551
0.000960723
0.000988095
0.000969162
0.000888171
0.000849441
0.000789147
0.000580574
0.000371626
0.000211973
-6.79225e-05
-0.000451637
-0.000861603
-0.000822117
-0.000958869
-0.00130595
-0.00133876
-0.00164759
-0.00174591
-0.00152559
-0.00160707
-0.00161385
-0.00151466
-0.00129333
-0.00122104
-0.00118789
-0.00106682
-0.000974655
-0.000932104
-0.000873085
-0.00080065
-0.000749851
-0.000710249
-0.000662614
-0.00061744
-0.000584421
-0.000552689
-0.000518315
-0.000488775
-0.000464592
-0.00043907
-0.000413512
-0.000391154
-0.000370237
-0.000347922
-0.000326352
-0.000306039
-0.000285672
-0.000264446
-0.000243886
-0.00022343
-0.000202679
-0.000181457
-0.000160628
-0.000139458
-0.000118136
-9.64954e-05
-7.50593e-05
-5.31983e-05
-3.13407e-05
-9.19519e-06
1.28205e-05
3.52305e-05
5.75512e-05
8.01591e-05
0.000102648
0.0001255
0.000148221
0.000171221
0.00019411
0.000217357
0.000240431
0.000263783
0.000287076
0.000310714
0.00033411
0.00035786
0.000381653
0.000405689
0.000429437
0.000453805
0.000478262
0.000502677
0.000527013
0.000552479
0.000577701
0.000602502
0.00062814
0.000655357
0.000681061
0.000706489
0.00073485
0.000763869
0.000788595
0.000815464
0.000847918
0.000901742
0.000936959
0.000966522
0.000990269
0.00102038
0.00104545
0.00104224
0.00103067
0.00103085
0.000963693
0.000817118
0.000713259
0.000540435
0.000246535
0.000184059
-0.000321786
-0.00111887
-0.000502455
-0.000447072
-0.00102632
-0.00053549
-0.000974003
-0.00119976
-0.0010118
-0.00157818
-0.00169324
-0.00144603
-0.00136203
-0.00125371
-0.00115992
-0.00107713
-0.00100486
-0.000935204
-0.000865592
-0.000807179
-0.00075493
-0.000702912
-0.000656016
-0.000614338
-0.000575275
-0.00053992
-0.000508568
-0.000478585
-0.000450837
-0.000426037
-0.000402628
-0.000379371
-0.000357736
-0.000337185
-0.000316706
-0.000296124
-0.000276372
-0.000256561
-0.00023654
-0.000216335
-0.000196415
-0.00017605
-0.000155556
-0.000134806
-0.000114105
-9.29364e-05
-7.17484e-05
-5.02546e-05
-2.8766e-05
-6.88103e-06
1.49619e-05
3.71273e-05
5.92527e-05
8.17206e-05
0.000104124
0.000126836
0.000149466
0.000172432
0.00019532
0.000218485
0.000241566
0.00026502
0.000288358
0.000311951
0.000335549
0.000359555
0.00038335
0.000407493
0.000431841
0.000456504
0.000480878
0.000505988
0.000531463
0.000556909
0.00058234
0.000609259
0.000636218
0.000662739
0.000690439
0.000720185
0.000748628
0.000777105
0.000808842
0.000841262
0.000870241
0.000932553
0.00097593
0.00100943
0.00103739
0.0010827
0.00111975
0.00111635
0.00112697
0.00115639
0.00107295
0.000931978
0.000882921
0.000732505
0.000399743
0.000130529
-0.00023655
-0.000586079
-0.000392946
-0.000275549
-0.00043782
-0.000471488
-0.000594462
-0.000477084
-0.00055378
-0.0010646
-0.00134965
-0.0013651
-0.00143118
-0.00128401
-0.00112531
-0.00108498
-0.0010228
-0.000927422
-0.000862422
-0.000816563
-0.000755812
-0.00069427
-0.000650973
-0.000612094
-0.000567622
-0.000528365
-0.000498822
-0.000469698
-0.000439417
-0.00041364
-0.000391771
-0.000369043
-0.000346622
-0.000326535
-0.000307341
-0.000287223
-0.000267586
-0.000248636
-0.000229518
-0.000209741
-0.00019025
-0.000170636
-0.000150707
-0.000130327
-0.000110053
-8.9397e-05
-6.85415e-05
-4.73403e-05
-2.61617e-05
-4.58163e-06
1.70724e-05
3.903e-05
6.09754e-05
8.32845e-05
0.000105588
0.000128175
0.000150741
0.000173646
0.000196497
0.000219629
0.000242754
0.000266212
0.000289579
0.000313273
0.000337023
0.000361085
0.00038505
0.000409503
0.000434094
0.00045892
0.00048379
0.000509493
0.000535303
0.000561254
0.000587795
0.000615634
0.000643185
0.000671045
0.000700827
0.000732028
0.00076179
0.00079311
0.000828717
0.000863858
0.000895228
0.000966296
0.00100312
0.00105116
0.00110196
0.00113681
0.00117327
0.00122678
0.00124643
0.00121148
0.00121954
0.00123233
0.00100052
0.000737779
0.000492822
9.19238e-07
-0.000237348
-0.000345986
-0.000509504
-0.000551168
-0.00035497
-0.000470073
-0.000411119
-0.00036068
-0.000398701
-0.000572015
-0.000842263
-0.00120535
-0.00129973
-0.00122505
-0.0011771
-0.0010916
-0.000993808
-0.000931034
-0.000876751
-0.000807177
-0.000747345
-0.000700323
-0.000649052
-0.000599384
-0.000561169
-0.000525592
-0.000488613
-0.000457279
-0.000431539
-0.000405364
-0.000380086
-0.000358504
-0.000338345
-0.000317431
-0.000297614
-0.000279091
-0.000260392
-0.000241173
-0.000222529
-0.000203884
-0.000184797
-0.000165347
-0.000146039
-0.000126309
-0.000106269
-8.5914e-05
-6.5512e-05
-4.46588e-05
-2.36483e-05
-2.33191e-06
1.90561e-05
4.08271e-05
6.26657e-05
8.4798e-05
0.000106964
0.000129469
0.000151999
0.000174796
0.000197604
0.000220762
0.000243907
0.000267298
0.000290759
0.00031461
0.000338375
0.000362455
0.00038679
0.000411484
0.000436017
0.000461212
0.000486891
0.000512672
0.00053851
0.000565812
0.000593471
0.000620825
0.000649446
0.000680477
0.000710685
0.000741005
0.000775429
0.000811725
0.000844931
0.00088172
0.000925596
0.000993769
0.00103781
0.0010907
0.00115036
0.00119768
0.00124029
0.00130721
0.00135673
0.00134753
0.00136159
0.00138024
0.00128188
0.000968958
0.000236472
-0.000325536
-0.000352741
-0.000441877
-0.00048607
-0.000436631
-0.000390715
-0.000465015
-0.000382262
-0.000350801
-0.000371389
-0.000394843
-0.000424202
-0.000741292
-0.00114505
-0.00125928
-0.00117062
-0.00104296
-0.000987272
-0.000947104
-0.000873339
-0.00079774
-0.000746472
-0.000699631
-0.00064463
-0.000594131
-0.00055508
-0.000518866
-0.000481875
-0.000449418
-0.000422663
-0.000397088
-0.000372077
-0.000349822
-0.000329775
-0.000309745
-0.000290145
-0.000271629
-0.000253542
-0.000235025
-0.000216634
-0.000198348
-0.00017986
-0.000160885
-0.000141852
-0.000122527
-0.000102907
-8.28668e-05
-6.27074e-05
-4.21668e-05
-2.14101e-05
-3.02875e-07
2.09126e-05
4.24865e-05
6.41838e-05
8.61837e-05
0.000108262
0.000130661
0.00015312
0.000175862
0.000198667
0.000221774
0.000244912
0.000268356
0.000291881
0.000315713
0.000339597
0.000363878
0.000388294
0.000413055
0.000437991
0.000463511
0.000489244
0.00051545
0.000542152
0.000569729
0.000597624
0.000626346
0.000656213
0.000687323
0.000718893
0.000752088
0.00078763
0.00082469
0.000862074
0.000902878
0.000948327
0.0010154
0.00107644
0.00112745
0.00117873
0.00125375
0.0013257
0.00137075
0.00142812
0.00151053
0.00151742
0.00146276
0.00158886
0.0011844
3.63894e-05
-0.000483229
-0.000441489
-0.000399619
-0.000370842
-0.00041464
-0.000474861
-0.00037124
-0.000360236
-0.00041915
-0.000372104
-0.000263125
-0.000260446
-0.000472418
-0.000951631
-0.00118052
-0.00110377
-0.00105913
-0.00100785
-0.000919838
-0.00085294
-0.00081196
-0.000752194
-0.00068383
-0.000637737
-0.000598818
-0.000550378
-0.000507403
-0.000477048
-0.000446674
-0.000414351
-0.000388227
-0.000366715
-0.000343911
-0.000321795
-0.000302907
-0.000284765
-0.000265654
-0.000247337
-0.000229923
-0.000212066
-0.000193629
-0.00017551
-0.000157235
-0.000138425
-0.000119225
-0.000100006
-8.03476e-05
-6.03238e-05
-3.998e-05
-1.94981e-05
1.40703e-06
2.2526e-05
4.39362e-05
6.54773e-05
8.73747e-05
0.0001094
0.00013169
0.000154076
0.000176794
0.000199593
0.00022263
0.00024578
0.000269291
0.000292828
0.000316632
0.000340684
0.000365118
0.000389509
0.000414398
0.000439783
0.000465425
0.000491114
0.000517959
0.000545416
0.000572798
0.000601054
0.000631548
0.000662
0.000692425
0.000726229
0.000762736
0.000797234
0.000834275
0.000878931
0.00092329
0.000963882
0.00103696
0.00109428
0.00115683
0.00122084
0.00129271
0.00137457
0.00144421
0.00150795
0.00160739
0.0016661
0.00165454
0.00171832
0.000707576
-0.000306232
-0.000334005
-0.000402111
-0.00041148
-0.000404263
-0.000414397
-0.000410223
-0.000367196
-0.00038699
-0.000355096
-0.000323218
-0.000288118
-0.000290975
-0.000301982
-0.000687192
-0.00110444
-0.00108309
-0.00105999
-0.000984309
-0.000913019
-0.00086136
-0.000804016
-0.000742117
-0.000687307
-0.000637388
-0.000589722
-0.000546343
-0.000507093
-0.000471294
-0.000439413
-0.000410771
-0.000384245
-0.000360139
-0.000338281
-0.000317697
-0.000297946
-0.000279298
-0.000261273
-0.000243415
-0.000225642
-0.000208073
-0.000190323
-0.000172342
-0.000154103
-0.000135681
-0.000116844
-9.77165e-05
-7.82302e-05
-5.84848e-05
-3.833e-05
-1.79364e-05
2.80713e-06
2.37646e-05
4.5068e-05
6.65456e-05
8.83345e-05
0.000110272
0.00013251
0.000154879
0.000177527
0.000200285
0.000223344
0.000246517
0.000269965
0.000293546
0.00031748
0.000341534
0.000365925
0.000390574
0.000415665
0.000440931
0.000466757
0.000493083
0.000519952
0.000547229
0.000575587
0.00060473
0.000634602
0.000665627
0.000698537
0.000732433
0.000767813
0.000805886
0.000846484
0.000888622
0.00093441
0.000984252
0.00105236
0.00110469
0.00117676
0.00125701
0.00132113
0.00139402
0.00150075
0.00160344
0.00166832
0.00173349
0.00186826
0.00157715
0.000297721
-0.000408346
-0.000288409
-0.000369936
-0.000429348
-0.00041935
-0.00037382
-0.000359634
-0.000408449
-0.000392347
-0.000308765
-0.000308735
-0.000322064
-0.000258131
-0.000217577
-0.000499709
-0.000978082
-0.00110438
-0.00101658
-0.000953262
-0.000928188
-0.000870182
-0.000787444
-0.000733638
-0.000694554
-0.000637321
-0.000580699
-0.000543236
-0.000508288
-0.000467532
-0.000433598
-0.000408283
-0.000382153
-0.000355711
-0.000334108
-0.000315004
-0.000294858
-0.000275527
-0.000258161
-0.000240848
-0.000222823
-0.000205284
-0.000188032
-0.00017024
-0.000151973
-0.00013376
-0.000115212
-9.61701e-05
-7.6764e-05
-5.72009e-05
-3.71995e-05
-1.6864e-05
3.78424e-06
2.46257e-05
4.58489e-05
6.72872e-05
8.9003e-05
0.000110878
0.000133082
0.000155434
0.000178034
0.000200773
0.000223843
0.000247017
0.000270435
0.000294059
0.000318053
0.000342104
0.000366511
0.000391321
0.000416493
0.00044173
0.000467741
0.0004944
0.000521254
0.000548577
0.000577568
0.000607106
0.000636706
0.000668354
0.000702677
0.000736472
0.000771512
0.000812133
0.000854737
0.000895062
0.000942236
0.000999149
0.00105721
0.0011236
0.00118645
0.00125535
0.0013429
0.00143296
0.00151654
0.00161151
0.00171213
0.00185128
0.00200929
0.00144328
0.00034192
-0.000372697
-0.000427248
-0.000380817
-0.000358647
-0.000386634
-0.00040635
-0.000397829
-0.000365006
-0.000338479
-0.000356798
-0.00032035
-0.000280619
-0.00024796
-0.000197319
-0.000442955
-0.000842026
-0.00104933
-0.0010228
-0.000982337
-0.00090914
-0.000846267
-0.000802091
-0.000743978
-0.000679446
-0.000631344
-0.0005897
-0.000542361
-0.000499832
-0.000467314
-0.000436102
-0.000404597
-0.000378202
-0.000355793
-0.000333302
-0.000311833
-0.000292941
-0.000274902
-0.0002565
-0.000238753
-0.000221668
-0.000204323
-0.00018658
-0.000168958
-0.000151139
-0.000132859
-0.0001142
-9.53793e-05
-7.61358e-05
-5.65162e-05
-3.65489e-05
-1.63528e-05
4.24417e-06
2.51029e-05
4.62707e-05
6.76353e-05
8.93361e-05
0.000111221
0.000133377
0.000155686
0.000178304
0.000201062
0.000224069
0.000247235
0.000270735
0.000294349
0.000318246
0.000342408
0.000366956
0.000391609
0.000416744
0.000442371
0.000468383
0.000494643
0.000521929
0.000549914
0.000578226
0.000607508
0.000638744
0.000670495
0.000702927
0.000738348
0.000776377
0.000814122
0.000854983
0.000902196
0.000950564
0.000998871
0.00105721
0.0011236
0.00118645
0.00125535
0.0013429
0.00143296
0.00151654
0.00161151
0.00171213
0.00185128
0.00200929
0.00144328
0.00034192
-0.000372697
-0.000427248
-0.000380817
-0.000358647
-0.000386634
-0.00040635
-0.000397829
-0.000365006
-0.000338479
-0.000356798
-0.00032035
-0.000280619
-0.00024796
-0.000197319
-0.000442955
-0.000842026
-0.00104933
-0.0010228
-0.000982337
-0.00090914
-0.000846267
-0.000802091
-0.000743978
-0.000679446
-0.000631344
-0.0005897
-0.000542361
-0.000499832
-0.000467314
-0.000436102
-0.000404597
-0.000378202
-0.000355793
-0.000333302
-0.000311833
-0.000292941
-0.000274902
-0.0002565
-0.000238753
-0.000221668
-0.000204323
-0.00018658
-0.000168958
-0.000151139
-0.000132859
-0.0001142
-9.53793e-05
-7.61358e-05
-5.65162e-05
-3.65489e-05
-1.63528e-05
4.24417e-06
2.51029e-05
4.62707e-05
6.76353e-05
8.93361e-05
0.000111221
0.000133377
0.000155686
0.000178304
0.000201062
0.000224069
0.000247235
0.000270735
0.000294349
0.000318246
0.000342408
0.000366956
0.000391609
0.000416744
0.000442371
0.000468383
0.000494643
0.000521929
0.000549914
0.000578226
0.000607508
0.000638744
0.000670495
0.000702927
0.000738348
0.000776377
0.000814122
0.000854983
0.000902196
0.000950564
0.000998871
0.00105236
0.00110469
0.00117676
0.00125701
0.00132113
0.00139402
0.00150075
0.00160344
0.00166832
0.00173349
0.00186826
0.00157715
0.000297721
-0.000408346
-0.000288409
-0.000369936
-0.000429348
-0.00041935
-0.00037382
-0.000359634
-0.000408449
-0.000392347
-0.000308765
-0.000308735
-0.000322064
-0.000258131
-0.000217577
-0.000499709
-0.000978082
-0.00110438
-0.00101658
-0.000953262
-0.000928188
-0.000870182
-0.000787444
-0.000733638
-0.000694554
-0.000637321
-0.000580699
-0.000543236
-0.000508288
-0.000467532
-0.000433598
-0.000408283
-0.000382153
-0.000355711
-0.000334108
-0.000315004
-0.000294858
-0.000275527
-0.000258161
-0.000240848
-0.000222823
-0.000205284
-0.000188032
-0.00017024
-0.000151973
-0.00013376
-0.000115212
-9.61701e-05
-7.6764e-05
-5.72009e-05
-3.71995e-05
-1.6864e-05
3.78424e-06
2.46257e-05
4.58489e-05
6.72872e-05
8.9003e-05
0.000110878
0.000133082
0.000155434
0.000178034
0.000200773
0.000223843
0.000247017
0.000270435
0.000294059
0.000318053
0.000342104
0.000366511
0.000391321
0.000416493
0.00044173
0.000467741
0.0004944
0.000521254