# vtk DataFile Version 3.0
fluid_state
ASCII
DATASET RECTILINEAR_GRID
DIMENSIONS 100 40 1
X_COORDINATES 100 float
0.5 1.5 2.5 3.5 4.5 5.5 6.5 7.5 8.5 9.5 10.5 11.5 12.5 13.5 14.5 15.5 16.5 17.5 18.5 19.5 20.5 21.5 22.5 23.5 24.5 25.5 26.5 27.5 28.5 29.5 30.5 31.5 32.5 33.5 34.5 35.5 36.5 37.5 38.5 39.5 40.5 41.5 42.5 43.5 44.5 45.5 46.5 47.5 48.5 49.5 50.5 51.5 52.5 53.5 54.5 55.5 56.5 57.5 58.5 59.5 60.5 61.5 62.5 63.5 64.5 65.5 66.5 67.5 68.5 69.5 70.5 71.5 72.5 73.5 74.5 75.5 76.5 77.5 78.5 79.5 80.5 81.5 82.5 83.5 84.5 85.5 86.5 87.5 88.5 89.5 90.5 91.5 92.5 93.5 94.5 95.5 96.5 97.5 98.5 99.5 
Y_COORDINATES 40 float
0.5 1.5 2.5 3.5 4.5 5.5 6.5 7.5 8.5 9.5 10.5 11.5 12.5 13.5 14.5 15.5 16.5 17.5 18.5 19.5 20.5 21.5 22.5 23.5 24.5 25.5 26.5 27.5 28.5 29.5 30.5 31.5 32.5 33.5 34.5 35.5 36.5 37.5 38.5 39.5 
Z_COORDINATES 1 float
0
POINT_DATA 4000
SCALARS density_difference float 1
LOOKUP_TABLE default
0.000758226
0.00076566
0.000771555
0.000775258
0.000773717
0.000764483
0.000747318
0.000728262
0.000699693
0.000649968
0.000597666
0.000541098
0.00045481
0.000360485
0.000266824
0.000149281
2.62439e-05
-9.30846e-05
-0.000224552
-0.000346559
-0.000455105
-0.00057069
-0.000663719
-0.000733357
-0.000806358
-0.000858171
-0.000885501
-0.000914421
-0.000929315
-0.000925535
-0.000921737
-0.000913524
-0.000894135
-0.000870129
-0.000847373
-0.000822935
-0.000792337
-0.000760665
-0.000732471
-0.000702784
-0.000669577
-0.000638116
-0.000609077
-0.000578469
-0.000546908
-0.000517469
-0.000489037
-0.000459672
-0.000430655
-0.000403164
-0.000375927
-0.000348398
-0.000321574
-0.000295605
-0.000269637
-0.000243762
-0.000218492
-0.000193609
-0.000168707
-0.000144035
-0.00011973
-9.55694e-05
-7.14296e-05
-4.74936e-05
-2.37254e-05
-1.39775e-08
2.36625e-05
4.72201e-05
7.0716e-05
9.41708e-05
0.000117621
0.00014102
0.000164372
0.000187696
0.000211075
0.000234396
0.00025763
0.000280904
0.000304265
0.000327441
0.000350522
0.000373788
0.000397022
0.000419832
0.000442717
0.00046591
0.000488609
0.000510714
0.000533368
0.000556047
0.000577346
0.000598407
0.00062052
0.000641297
0.000659907
0.000679479
0.00069934
0.000715368
0.000729749
0.000745522
0.000749035
0.000756439
0.00076164
0.000763401
0.000759528
0.000745765
0.000729696
0.000712572
0.000672638
0.000620292
0.000579646
0.000514189
0.000417271
0.000334227
0.0002457
0.000121773
-2.77943e-06
-0.000110043
-0.000231296
-0.00036036
-0.000462891
-0.000561845
-0.000658707
-0.000723408
-0.0007848
-0.000845009
-0.000867165
-0.000882704
-0.000909022
-0.000910243
-0.000894632
-0.000887098
-0.000877917
-0.000854712
-0.000826046
-0.000803986
-0.000780954
-0.000749121
-0.000717344
-0.000691035
-0.000662399
-0.000629755
-0.000599449
-0.000571867
-0.000542276
-0.000511769
-0.00048341
-0.00045606
-0.000427587
-0.000399506
-0.000372799
-0.00034636
-0.000319502
-0.000293357
-0.000267905
-0.000242503
-0.000217069
-0.000192247
-0.000167681
-0.000143157
-0.000118736
-9.47172e-05
-7.07317e-05
-4.68275e-05
-2.30201e-05
5.63251e-07
2.42045e-05
4.7734e-05
7.1221e-05
9.46023e-05
0.000118061
0.000141385
0.000164731
0.000188039
0.000211389
0.000234585
0.00025788
0.000281148
0.000304357
0.000327424
0.000350687
0.000373814
0.000396725
0.000419611
0.000442737
0.000465396
0.000487733
0.000510312
0.000532895
0.000554414
0.000575782
0.000597641
0.000618602
0.000637855
0.000657563
0.000677289
0.000694372
0.000709647
0.000725566
0.00073934
0.000743082
0.000753165
0.000756524
0.000753246
0.000748523
0.000740253
0.000722462
0.000690812
0.000655509
0.000619527
0.000556736
0.000476666
0.000411006
0.000319859
0.000199044
9.72219e-05
-1.45817e-05
-0.000148157
-0.000261668
-0.000374716
-0.000492211
-0.000577062
-0.000661468
-0.000744907
-0.000788746
-0.000827018
-0.000870455
-0.000884235
-0.000886045
-0.000893003
-0.00088958
-0.000873525
-0.000854807
-0.000839255
-0.000818114
-0.000789023
-0.000762321
-0.00073878
-0.000709754
-0.000678268
-0.000650458
-0.000623289
-0.000592813
-0.000562936
-0.000535407
-0.000507498
-0.000478311
-0.000450501
-0.000423731
-0.000396563
-0.000369246
-0.000343113
-0.00031726
-0.000291293
-0.000265584
-0.000240635
-0.000215655
-0.000190799
-0.000166208
-0.000142036
-0.000117758
-9.37037e-05
-6.97829e-05
-4.60921e-05
-2.22979e-05
1.28e-06
2.48455e-05
4.82565e-05
7.17741e-05
9.51181e-05
0.000118506
0.000141769
0.000165163
0.000188397
0.000211674
0.000234867
0.00025821
0.000281327
0.000304482
0.000327637
0.000350867
0.00037372
0.000396701
0.000419755
0.000442584
0.000464894
0.000487622
0.000510244
0.000532009
0.000553429
0.000575644
0.000596814
0.000616398
0.00063651
0.000657104
0.000674509
0.000690425
0.000708007
0.000723467
0.000733289
0.000743928
0.000749645
0.000752527
0.000752805
0.000746379
0.000735653
0.000717443
0.000684692
0.000652331
0.000611621
0.000538669
0.000466363
0.000399043
0.000290102
0.000170145
6.6981e-05
-5.12454e-05
-0.00019171
-0.000315727
-0.000418503
-0.000534415
-0.000632369
-0.00070104
-0.00077557
-0.000825456
-0.000845445
-0.000880641
-0.000901479
-0.000889523
-0.000885595
-0.000885634
-0.000870489
-0.000845325
-0.00082433
-0.000806669
-0.000781016
-0.000749961
-0.000724346
-0.000699722
-0.000669963
-0.000639529
-0.000612861
-0.00058551
-0.000555991
-0.000527385
-0.000500778
-0.000473284
-0.000445325
-0.000418411
-0.000392439
-0.000365834
-0.000339526
-0.000313944
-0.000288771
-0.000263263
-0.000238276
-0.000213638
-0.000189201
-0.000164626
-0.00014053
-0.000116506
-9.26346e-05
-6.87056e-05
-4.51284e-05
-2.147e-05
2.0269e-06
2.55808e-05
4.89028e-05
7.2365e-05
9.56432e-05
0.000119018
0.000142241
0.000165595
0.000188748
0.000212058
0.00023524
0.000258484
0.000281539
0.000304821
0.000327898
0.000350932
0.000373869
0.000397042
0.000419771
0.00044241
0.000465129
0.000487863
0.000509755
0.00053173
0.00055389
0.000575345
0.000595608
0.000616451
0.000636968
0.000655432
0.000672906
0.000691295
0.000707282
0.000719919
0.000732466
0.000746129
0.000749742
0.000755403
0.000758369
0.000750153
0.00073462
0.000717764
0.000695106
0.000653852
0.000592124
0.000539149
0.000476147
0.000358667
0.000251159
0.000165556
1.61722e-05
-0.000132312
-0.000241578
-0.000380436
-0.000512538
-0.000605919
-0.00071464
-0.000787517
-0.0008235
-0.000883706
-0.00091811
-0.000907114
-0.000914255
-0.000922825
-0.000906913
-0.000881307
-0.000864785
-0.000851106
-0.000822765
-0.000790777
-0.000769756
-0.00074618
-0.000713901
-0.000684439
-0.000660457
-0.000632546
-0.000601954
-0.000574563
-0.000548886
-0.000520557
-0.000492391
-0.000466214
-0.000440238
-0.000413013
-0.000386799
-0.000361447
-0.00033597
-0.000310125
-0.000285243
-0.000260546
-0.000235834
-0.000211114
-0.00018706
-0.000162899
-0.000138877
-0.000114896
-9.13235e-05
-6.75614e-05
-4.40164e-05
-2.04431e-05
2.86671e-06
2.63767e-05
4.96606e-05
7.30395e-05
9.62213e-05
0.000119607
0.000142772
0.00016606
0.000189192
0.000212528
0.000235613
0.000258833
0.000281946
0.000305213
0.000328146
0.000351267
0.000374318
0.00039734
0.000419937
0.000442886
0.000465657
0.000487998
0.000509993
0.000532578
0.000554411
0.000575282
0.000596341
0.000617895
0.000637223
0.000655463
0.000674926
0.000693279
0.000707084
0.000721081
0.000736438
0.000749072
0.000760662
0.00076555
0.000761389
0.000759057
0.000750211
0.000726462
0.000699786
0.000660615
0.000600401
0.000541905
0.000457236
0.000339337
0.000236561
0.000111201
-4.94351e-05
-0.00019822
-0.000336204
-0.000479216
-0.000630005
-0.000730361
-0.000816798
-0.000902192
-0.000938564
-0.000959765
-0.000992467
-0.000980132
-0.000959299
-0.000954912
-0.000934036
-0.00090354
-0.000873836
-0.000848448
-0.00082391
-0.000791547
-0.00075998
-0.000734129
-0.000706995
-0.000675932
-0.000647337
-0.000621057
-0.000593495
-0.000564701
-0.000537981
-0.000511863
-0.000485016
-0.000458076
-0.0004326
-0.000406997
-0.000381193
-0.000355681
-0.000331064
-0.0003061
-0.00028132
-0.00025681
-0.000232792
-0.000208454
-0.000184473
-0.000160586
-0.000136985
-0.000113147
-8.96761e-05
-6.6133e-05
-4.28054e-05
-1.92922e-05
3.91828e-06
2.72986e-05
5.0467e-05
7.38172e-05
9.69359e-05
0.000120249
0.000143336
0.000166639
0.000189746
0.00021301
0.000236055
0.000259367
0.00028244
0.0003056
0.000328613
0.000351901
0.000374782
0.000397729
0.000420675
0.00044372
0.000466078
0.000488683
0.000511367
0.000533578
0.000554921
0.000576992
0.000598696
0.000618876
0.000638595
0.000659486
0.000678186
0.00069433
0.000711537
0.000728685
0.000739721
0.000761146
0.000773602
0.000776594
0.000775565
0.000776691
0.000768041
0.000744231
0.000711264
0.000673827
0.000626874
0.000539016
0.000425537
0.000350173
0.000219963
1.00369e-05
-0.000115359
-0.00025515
-0.000477075
-0.000629078
-0.000752241
-0.000895582
-0.000963679
-0.0010288
-0.00110144
-0.00107788
-0.00105298
-0.00107604
-0.00104915
-0.00099347
-0.000955834
-0.000936281
-0.000903299
-0.000852195
-0.000818868
-0.000796263
-0.000760414
-0.000722103
-0.000695689
-0.000669481
-0.000637196
-0.00060719
-0.000582385
-0.000555479
-0.000526873
-0.000500632
-0.000476142
-0.000449854
-0.000423777
-0.000399113
-0.000374818
-0.000349507
-0.00032497
-0.000300978
-0.000276999
-0.000252583
-0.000228901
-0.000205244
-0.000181636
-0.000157852
-0.000134597
-0.000111143
-8.78399e-05
-6.44129e-05
-4.13416e-05
-1.80075e-05
5.11621e-06
2.83898e-05
5.14083e-05
7.46965e-05
9.77506e-05
0.000120987
0.000144021
0.000167315
0.000190353
0.000213597
0.000236676
0.000259976
0.00028298
0.00030623
0.000329334
0.00035255
0.000375433
0.000398654
0.000421657
0.000444555
0.000467177
0.000490258
0.0005128
0.000534951
0.000557121
0.000579697
0.000600922
0.000621656
0.000643014
0.00066393
0.000682048
0.000700372
0.000719701
0.000735634
0.000747275
0.000778666
0.000784141
0.000794021
0.000805662
0.000797866
0.000782109
0.000775889
0.000746744
0.000690421
0.000636966
0.000555725
0.000443665
0.000324698
0.000154166
-1.54907e-05
-0.000187538
-0.000405484
-0.000597319
-0.000781746
-0.000923311
-0.00107753
-0.00117293
-0.00118948
-0.00121505
-0.00123646
-0.00118745
-0.00115132
-0.00111012
-0.00105972
-0.0010157
-0.000958545
-0.000914615
-0.000877581
-0.000831012
-0.000788599
-0.000756637
-0.000722987
-0.000686822
-0.000655196
-0.000627588
-0.000598022
-0.000568671
-0.000542145
-0.000516689
-0.000489837
-0.000464146
-0.000439738
-0.000415273
-0.000390165
-0.000366237
-0.000342543
-0.000318678
-0.000294656
-0.000271453
-0.000248008
-0.000224601
-0.000201168
-0.000178213
-0.00015491
-0.000131814
-0.000108633
-8.574e-05
-6.25318e-05
-3.95832e-05
-1.64608e-05
6.44011e-06
2.96163e-05
5.25488e-05
7.57046e-05
9.86443e-05
0.000121854
0.000144846
0.000168056
0.000191052
0.000214345
0.000237403
0.000260636
0.000283705
0.000307087
0.000330125
0.000353329
0.000376491
0.000399856
0.000422682
0.000445833
0.000469047
0.000492053
0.000514409
0.000537545
0.000560473
0.000582393
0.000604087
0.000627118
0.000648577
0.000668218
0.000689213
0.000711013
0.000727875
0.000743649
0.000763337
0.000794321
0.000807327
0.000822097
0.000828991
0.000825561
0.000821194
0.000809772
0.000778541
0.000730172
0.000658674
0.000578442
0.000482099
0.000283972
9.07298e-05
-6.44054e-06
-0.000287674
-0.000575627
-0.000699563
-0.000940095
-0.00115152
-0.00124264
-0.00137077
-0.0014114
-0.00132898
-0.00135685
-0.00134934
-0.0012327
-0.00116281
-0.00112232
-0.00107392
-0.000995276
-0.000927833
-0.000892262
-0.000847635
-0.000791528
-0.000751048
-0.000719477
-0.000681869
-0.000644375
-0.000615139
-0.000587103
-0.00055676
-0.000528412
-0.000503782
-0.000478343
-0.000452357
-0.00042794
-0.000404925
-0.000380867
-0.000357043
-0.000334026
-0.000311396
-0.000288014
-0.000265114
-0.000242424
-0.000219814
-0.000196755
-0.000174153
-0.000151424
-0.000128767
-0.000105823
-8.32328e-05
-6.03753e-05
-3.76504e-05
-1.46932e-05
8.00201e-06
3.10002e-05
5.38145e-05
7.68598e-05
9.96999e-05
0.000122836
0.000145755
0.000168922
0.000191917
0.000215177
0.000238194
0.000261497
0.000284635
0.000307972
0.000331068
0.000354509
0.000377732
0.000401056
0.000424213
0.000447766
0.000470916
0.000494097
0.000517306
0.000540821
0.000563572
0.000586447
0.000609612
0.000632604
0.000654312
0.000676571
0.000699149
0.000720186
0.000739395
0.00076004
0.000779621
0.000815249
0.000840148
0.00085138
0.000852556
0.000869025
0.000875519
0.000841517
0.000813655
0.000797163
0.000713211
0.00059359
0.000488297
0.000320852
0.000109563
-0.00014337
-0.000394831
-0.000546201
-0.000839211
-0.00113374
-0.00135767
-0.00142709
-0.00149958
-0.0015893
-0.00157001
-0.0014445
-0.00138361
-0.00132078
-0.00127673
-0.0011803
-0.00107652
-0.00103275
-0.000975101
-0.00089696
-0.000844179
-0.000805379
-0.000756572
-0.000708388
-0.000673323
-0.0006404
-0.000604031
-0.000571684
-0.000545095
-0.000517277
-0.000489164
-0.000464284
-0.000441076
-0.000416366
-0.000392546
-0.000370245
-0.000347975
-0.000324831
-0.000302642
-0.000280744
-0.000258594
-0.000236063
-0.000214172
-0.000192028
-0.000169794
-0.000147357
-0.000125279
-0.00010282
-8.04393e-05
-5.78609e-05
-3.54983e-05
-1.27775e-05
9.78596e-06
3.25821e-05
5.5203e-05
7.81465e-05
0.000100914
0.000123925
0.000146765
0.000169924
0.000192891
0.000216084
0.000239132
0.00026251
0.000285635
0.00030898
0.000332272
0.000355846
0.000379041
0.000402574
0.000426175
0.000449814
0.000472996
0.000496894
0.000520781
0.000544163
0.000567413
0.000591976
0.000615714
0.000638323
0.000662113
0.000687318
0.000709359
0.000730657
0.000755741
0.000779365
0.000795553
0.000845007
0.000865238
0.000883009
0.00090183
0.000913772
0.00091077
0.000904934
0.000889945
0.000838773
0.0007685
0.000672274
0.000507876
0.000362704
0.000168097
-0.000264338
-0.000455272
-0.000518781
-0.000925396
-0.00115541
-0.00142721
-0.00171903
-0.00174782
-0.00162869
-0.00167728
-0.00154459
-0.00144478
-0.00142131
-0.00132262
-0.00121918
-0.00111711
-0.00104995
-0.000990479
-0.000915707
-0.000853851
-0.000805914
-0.000756264
-0.000707381
-0.000666832
-0.00063055
-0.000594515
-0.00056067
-0.000531467
-0.000503985
-0.000476736
-0.000450862
-0.000427454
-0.00040431
-0.000381176
-0.000358746
-0.000337398
-0.000315638
-0.000293925
-0.000272454
-0.000251336
-0.000229685
-0.000208175
-0.0001866
-0.000165109
-0.000143172
-0.000121415
-9.94252e-05
-7.74813e-05
-5.51904e-05
-3.30708e-05
-1.06537e-05
1.16785e-05
3.43027e-05
5.6777e-05
7.95571e-05
0.000102204
0.000125131
0.000147926
0.000171004
0.000193918
0.000217134
0.000240222
0.000263547
0.00028672
0.000310245
0.000333596
0.000357145
0.000380638
0.00040451
0.000428086
0.000451918
0.00047588
0.000500104
0.000523891
0.000548231
0.000572835
0.000597321
0.000621441
0.000646662
0.00067186
0.000696359
0.000721042
0.000747159
0.000772044
0.000795622
0.000820151
0.000874607
0.000893627
0.000923257
0.000954238
0.000958216
0.000960359
0.000987674
0.000968709
0.000887651
0.000848883
0.000788511
0.000579882
0.000370834
0.000211093
-6.89211e-05
-0.000452731
-0.000862819
-0.000823337
-0.000960059
-0.00130713
-0.00133994
-0.00164885
-0.00174724
-0.00152687
-0.00160832
-0.00161506
-0.00151583
-0.00129441
-0.00122208
-0.00118891
-0.00106779
-0.000975561
-0.000932977
-0.000873901
-0.000801422
-0.000750558
-0.000710911
-0.000663206
-0.000617982
-0.00058489
-0.000553107
-0.000518657
-0.000489064
-0.000464804
-0.000439229
-0.000413594
-0.000391184
-0.000370191
-0.000347827
-0.000326182
-0.000305822
-0.000285383
-0.000264113
-0.000243483
-0.000222987
-0.000202171
-0.000180912
-0.000160023
-0.000138822
-0.000117444
-9.57785e-05
-7.42924e-05
-5.24124e-05
-3.0511e-05
-8.35317e-06
1.36997e-05
3.61151e-05
5.84659e-05
8.10719e-05
0.000103584
0.000126426
0.000149163
0.000172147
0.000195045
0.000218268
0.000241343
0.000264665
0.000287952
0.000311553
0.000334937
0.000358643
0.000382419
0.000406405
0.000430131
0.000454444
0.000478874
0.00050323
0.000527535
0.000552938
0.000578126
0.000602863
0.000628464
0.000655615
0.000681282
0.000706642
0.000734967
0.000763919
0.000788608
0.000815412
0.000847831
0.000901603
0.000936787
0.000966293
0.000990008
0.00102006
0.00104511
0.00104184
0.00103024
0.00103037
0.000963165
0.000816507
0.000712604
0.000539667
0.000245675
0.000183128
-0.000322783
-0.00111991
-0.000503295
-0.000447805
-0.0010271
-0.000536202
-0.00097481
-0.0012007
-0.00101282
-0.00157934
-0.00169442
-0.00144716
-0.00136312
-0.00125473
-0.00116091
-0.00107808
-0.00100576
-0.000936067
-0.000866401
-0.000807944
-0.000755636
-0.000703569
-0.000656607
-0.000614876
-0.000575743
-0.000540333
-0.000508908
-0.000478869
-0.000451047
-0.000426191
-0.000402708
-0.000379396
-0.000357688
-0.000337085
-0.000316534
-0.000295901
-0.00027608
-0.000256223
-0.000236135
-0.000215888
-0.000195905
-0.000175502
-0.00015495
-0.000134167
-0.000113412
-9.22168e-05
-7.0981e-05
-4.94664e-05
-2.79361e-05
-6.03709e-06
1.58411e-05
3.80135e-05
6.01672e-05
8.26349e-05
0.000105059
0.000127764
0.000150408
0.000173359
0.000196255
0.000219397
0.000242478
0.000265902
0.000289234
0.000312791
0.000336377
0.00036034
0.000384116
0.000408211
0.000432535
0.000457145
0.000481491
0.000506543
0.000531986
0.000557372
0.000582767
0.000609623
0.000636545
0.000663002
0.000690664
0.000720345
0.00074875
0.000777162
0.000808862
0.000841219
0.000870162
0.000932424
0.00097577
0.00100921
0.00103715
0.00108241
0.00111943
0.00111598
0.00112657
0.00115594
0.00107246
0.000931415
0.0008823
0.000731792
0.000398958
0.000129721
-0.000237271
-0.000586708
-0.000393458
-0.000276036
-0.000438314
-0.000471986
-0.000594996
-0.000477621
-0.000554418
-0.00106544
-0.00135067
-0.00136616
-0.00143225
-0.00128504
-0.00112628
-0.00108591
-0.0010237
-0.000928277
-0.000863228
-0.000817326
-0.000756518
-0.000694924
-0.000651564
-0.000612631
-0.000568091
-0.000528775
-0.000499162
-0.000469979
-0.000439626
-0.000413791
-0.00039185
-0.000369065
-0.000346572
-0.00032643
-0.000307166
-0.000286996
-0.000267292
-0.000248294
-0.000229112
-0.00020929
-0.000189738
-0.000170085
-0.000150099
-0.000129686
-0.00010936
-8.86753e-05
-6.77742e-05
-4.65506e-05
-2.53323e-05
-3.73644e-06
1.79507e-05
3.99171e-05
6.18889e-05
8.41995e-05
0.000106522
0.000129104
0.000151682
0.000174573
0.000197429
0.000220541
0.000243665
0.000267095
0.000290454
0.000314113
0.000337849
0.000361869
0.000385815
0.000410221
0.000434787
0.000459562
0.000484402
0.000510049
0.000535826
0.000561718
0.000588223
0.000616
0.000643513
0.000671311
0.000701054
0.000732192
0.000761915
0.000793172
0.000828743
0.000863823
0.000895157
0.000966179
0.00100297
0.00105096
0.00110173
0.00113654
0.00117297
0.00122643
0.00124606
0.00121106
0.00121909
0.00123184
0.00099994
0.000737107
0.000492155
3.30475e-07
-0.000237843
-0.000346458
-0.000510023
-0.000551692
-0.000355459
-0.000470582
-0.000411631
-0.00036119
-0.000399199
-0.000572581
-0.00084299
-0.00120629
-0.00130075
-0.00122604
-0.00117805
-0.00109253
-0.000994692
-0.000931878
-0.000877551
-0.000807934
-0.000748047
-0.000700974
-0.000649643
-0.000599917
-0.000561637
-0.000526001
-0.000488952
-0.000457558
-0.000431747
-0.000405512
-0.000380163
-0.000358522
-0.000338293
-0.000317322
-0.000297438
-0.000278861
-0.000260097
-0.000240827
-0.000222121
-0.00020343
-0.000184284
-0.000164793
-0.000145431
-0.000125664
-0.000105575
-8.51899e-05
-6.47442e-05
-4.38668e-05
-2.28187e-05
-1.48481e-06
1.99344e-05
4.17159e-05
6.3579e-05
8.57145e-05
0.000107898
0.000130399
0.000152939
0.000175725
0.000198536
0.000221676
0.000244817
0.000268182
0.000291633
0.000315452
0.0003392
0.000363242
0.000387555
0.000412204
0.000436711
0.000461856
0.000487504
0.000513231
0.000539034
0.000566279
0.0005939
0.000621195
0.000649776
0.000680747
0.000710915
0.000741174
0.000775559
0.000811794
0.000844963
0.000881692
0.000925534
0.000993661
0.00103767
0.00109051
0.00115015
0.00119743
0.00124001
0.0013069
0.00135639
0.00134715
0.00136119
0.00137979
0.00128138
0.000968419
0.000235946
-0.00032603
-0.000353221
-0.000442369
-0.00048657
-0.000437136
-0.000391223
-0.000465537
-0.000382765
-0.000351295
-0.000371887
-0.000395359
-0.000424746
-0.00074201
-0.00114597
-0.00126026
-0.00117156
-0.00104387
-0.000988145
-0.000947946
-0.000874137
-0.000798491
-0.000747173
-0.000700281
-0.000645221
-0.000594663
-0.000555548
-0.000519273
-0.000482214
-0.000449695
-0.000422871
-0.000397234
-0.000372154
-0.000349837
-0.000329723
-0.000309634
-0.000289968
-0.000271396
-0.000253246
-0.000234677
-0.000216225
-0.000197891
-0.000179346
-0.000160329
-0.000141244
-0.000121881
-0.000102214
-8.21411e-05
-6.19398e-05
-4.13735e-05
-2.05809e-05
5.45336e-07
2.17903e-05
4.33762e-05
6.50963e-05
8.71009e-05
0.000109195
0.000131592
0.000154059
0.000176791
0.000199598
0.000222688
0.00024582
0.00026924
0.000292754
0.000316555
0.000340421
0.000364665
0.000389057
0.000413775
0.000438683
0.000464155
0.000489856
0.000516009
0.000542676
0.000570197
0.000598053
0.000626717
0.000656544
0.000687595
0.000719124
0.000752259
0.000787762
0.000824763
0.00086211
0.000902857
0.000948272
0.0010153
0.00107631
0.00112727
0.00117853
0.00125351
0.00132545
0.00137045
0.00142781
0.0015102
0.00151707
0.00146235
0.00158846
0.00118401
3.59456e-05
-0.000483711
-0.000441967
-0.000400108
-0.000371335
-0.000415146
-0.000475374
-0.000371741
-0.000360739
-0.000419664
-0.000372606
-0.000263604
-0.000260937
-0.000472988
-0.000952402
-0.00118144
-0.00110469
-0.00106002
-0.00100871
-0.000920667
-0.000853729
-0.000812708
-0.000752893
-0.000684476
-0.000638325
-0.00059935
-0.000550845
-0.000507808
-0.000477387
-0.00044695
-0.000414559
-0.000388371
-0.00036679
-0.000343925
-0.000321741
-0.000302794
-0.000284587
-0.000265419
-0.000247039
-0.000229572
-0.000211656
-0.00019317
-0.000174996
-0.000156677
-0.000137815
-0.000118577
-9.93119e-05
-7.96202e-05
-5.95559e-05
-3.91851e-05
-1.86687e-05
2.25666e-06
2.34037e-05
4.48271e-05
6.63897e-05
8.8293e-05
0.000110333
0.000132622
0.000155015
0.000177724
0.000200524
0.000223544
0.000246688
0.000270177
0.000293701
0.000317475
0.000341508
0.000365906
0.000390273
0.00041512
0.000440476
0.000466071
0.000491726
0.00051852
0.00054594
0.000573268
0.000601484
0.000631922
0.000662333
0.0006927
0.000726462
0.000762912
0.000797369
0.000834353
0.000878971
0.000923276
0.000963832
0.00103686
0.00109416
0.00115666
0.00122065
0.00129248
0.00137433
0.00144394
0.00150767
0.00160708
0.00166578
0.0016542
0.00171798
0.000707177
-0.000306694
-0.000334461
-0.00040258
-0.000411972
-0.000404759
-0.000414901
-0.000410728
-0.000367699
-0.000387496
-0.0003556
-0.000323719
-0.0002886
-0.000291463
-0.000302492
-0.000687879
-0.00110533
-0.00108398
-0.00106087
-0.000985164
-0.00091384
-0.000862146
-0.000804761
-0.000742813
-0.000687952
-0.000637976
-0.000590252
-0.00054681
-0.000507498
-0.000471633
-0.000439688
-0.000410979
-0.000384388
-0.000360214
-0.000338293
-0.000317643
-0.000297832
-0.00027912
-0.000261036
-0.000243117
-0.00022529
-0.000207663
-0.000189863
-0.000171828
-0.000153543
-0.000135072
-0.000116195
-9.70222e-05
-7.75018e-05
-5.77169e-05
-3.75343e-05
-1.71073e-05
3.65747e-06
2.4642e-05
4.59595e-05
6.74575e-05
8.92534e-05
0.000111204
0.000133442
0.000155817
0.000178457
0.000201216
0.000224259
0.000247425
0.00027085
0.000294418
0.000318323
0.000342357
0.000366713
0.000391337
0.000416387
0.000441623
0.000467403
0.000493695
0.000520514
0.000547753
0.000576057
0.000605161
0.000634977
0.00066596
0.000698813
0.000732668
0.000767991
0.000806023
0.000846566
0.000888664
0.0009344
0.000984208
0.00105227
0.00110457
0.0011766
0.00125683
0.00132091
0.00139379
0.0015005
0.00160318
0.00166805
0.0017332
0.00186797
0.00157684
0.000297302
-0.000408807
-0.000288849
-0.00037041
-0.000429845
-0.000419843
-0.000374314
-0.000360134
-0.000408962
-0.000392851
-0.000309258
-0.000309236
-0.000322564
-0.000258603
-0.000218061
-0.00050033
-0.000978901
-0.00110526
-0.00101745
-0.000954102
-0.000929006
-0.000870966
-0.000788184
-0.00073433
-0.000695198
-0.000637909
-0.000581228
-0.000543702
-0.000508693
-0.00046787
-0.000433872
-0.00040849
-0.000382296
-0.000355786
-0.00033412
-0.00031495
-0.000294743
-0.000275348
-0.000257923
-0.00024055
-0.00022247
-0.000204873
-0.000187571
-0.000169725
-0.000151412
-0.00013315
-0.000114562
-9.54755e-05
-7.60347e-05
-5.64329e-05
-3.6403e-05
-1.60347e-05
4.63532e-06
2.55031e-05
4.67411e-05
6.81991e-05
8.99225e-05
0.00011181
0.000134014
0.000156373
0.000178965
0.000201703
0.000224758
0.000247925
0.000271321
0.000294931
0.000318897
0.000342927
0.0003673
0.000392084
0.000417216
0.000442422
0.000468388
0.000495012
0.000521817
0.000549101
0.000578039
0.000607537
0.000637082
0.000668688
0.000702956
0.000736708
0.000771691
0.000812272
0.000854821
0.000895107
0.000942229
0.000999108
0.00105712
0.00112348
0.00118629
0.00125517
0.00134269
0.00143273
0.00151629
0.00161126
0.00171186
0.00185102
0.00200904
0.00144298
0.000341539
-0.000373133
-0.000427723
-0.000381292
-0.000359123
-0.000387127
-0.000406854
-0.00039833
-0.000365507
-0.000338981
-0.000357305
-0.00032084
-0.000281113
-0.000248448
-0.000197779
-0.000443525
-0.000842788
-0.00105019
-0.00102366
-0.000983181
-0.000909955
-0.000847045
-0.000802831
-0.000744672
-0.000680088
-0.00063193
-0.000590229
-0.000542828
-0.000500236
-0.000467652
-0.000436377
-0.000404804
-0.000378344
-0.000355868
-0.000333314
-0.000311779
-0.000292826
-0.000274723
-0.000256262
-0.000238455
-0.000221315
-0.000203912
-0.000186118
-0.000168443
-0.000150578
-0.00013225
-0.000113549
-9.46846e-05
-7.54062e-05
-5.57482e-05
-3.57521e-05
-1.55236e-05
5.09547e-06
2.59802e-05
4.71631e-05
6.8547e-05
9.02558e-05
0.000112153
0.000134309
0.000156624
0.000179235
0.000201991
0.000224985
0.000248143
0.000271622
0.00029522
0.000319089
0.000343231
0.000367745
0.000392371
0.000417467
0.000443062
0.00046903
0.000495255
0.000522491
0.000550439
0.000578698
0.000607939
0.000639121
0.000670829
0.000703205
0.000738584
0.000776557
0.000814261
0.000855068
0.000902242
0.000950559
0.000998831
0.00105712
0.00112348
0.00118629
0.00125517
0.00134269
0.00143273
0.00151629
0.00161126
0.00171186
0.00185102
0.00200904
0.00144298
0.000341539
-0.000373133
-0.000427723
-0.000381292
-0.000359123
-0.000387127
-0.000406854
-0.00039833
-0.000365507
-0.000338981
-0.000357305
-0.00032084
-0.000281113
-0.000248448
-0.000197779
-0.000443525
-0.000842788
-0.00105019
-0.00102366
-0.000983181
-0.000909955
-0.000847045
-0.000802831
-0.000744672
-0.000680088
-0.00063193
-0.000590229
-0.000542828
-0.000500236
-0.000467652
-0.000436377
-0.000404804
-0.000378344
-0.000355868
-0.000333314
-0.000311779
-0.000292826
-0.000274723
-0.000256262
-0.000238455
-0.000221315
-0.000203912
-0.000186118
-0.000168443
-0.000150578
-0.00013225
-0.000113549
-9.46846e-05
-7.54062e-05
-5.57482e-05
-3.57521e-05
-1.55236e-05
5.09547e-06
2.59802e-05
4.71631e-05
6.8547e-05
9.02558e-05
0.000112153
0.000134309
0.000156624
0.000179235
0.000201991
0.000224985
0.000248143
0.000271622
0.00029522
0.000319089
0.000343231
0.000367745
0.000392371
0.000417467
0.000443062
0.00046903
0.000495255
0.000522491
0.000550439
0.000578698
0.000607939
0.000639121
0.000670829
0.000703205
0.000738584
0.000776557
0.000814261
0.000855068
0.000902242
0.000950559
0.000998831
0.00105227
0.00110457
0.0011766
0.00125683
0.00132091
0.00139379
0.0015005
0.00160318
0.00166805
0.0017332
0.00186797
0.00157684
0.000297302
-0.000408807
-0.000288849
-0.00037041
-0.000429845
-0.000419843
-0.000374314
-0.000360134
-0.000408962
-0.000392851
-0.000309258
-0.000309236
-0.000322564
-0.000258603
-0.000218061
-0.00050033
-0.000978901
-0.00110526
-0.00101745
-0.000954102
-0.000929006
-0.000870966
-0.000788184
-0.00073433
-0.000695198
-0.000637909
-0.000581228
-0.000543702
-0.000508693
-0.00046787
-0.000433872
-0.00040849
-0.000382296
-0.000355786
-0.00033412
-0.00031495
-0.000294743
-0.000275348
-0.000257923
-0.00024055
-0.00022247
-0.000204873
-0.000187571
-0.000169725
-0.000151412
-0.00013315
-0.000114562
-9.54755e-05
-7.60347e-05
-5.64329e-05
-3.6403e-05
-1.60347e-05
4.63532e-06
2.55031e-05
4.67411e-05
6.81991e-05
8.99225e-05
0.00011181
0.000134014
0.000156373
0.000178965
0.000201703
0.000224758
0.000247925
0.000271321
0.000294931
0.000318897
0.000342927
0.0003673
0.000392084
0.000417216
0.000442422
0.000468388
0.000495012