# vtk DataFile Version 3.0
fluid_state
ASCII
DATASET RECTILINEAR_GRID
DIMENSIONS 100 40 1
X_COORDINATES 100 float
0.5 1.5 2.5 3.5 4.5 5.5 6.5 7.5 8.5 9.5 10.5 11.5 12.5 13.5 14.5 15.5 16.5 17.5 18.5 19.5 20.5 21.5 22.5 23.5 24.5 25.5 26.5 27.5 28.5 29.5 30.5 31.5 32.5 33.5 34.5 35.5 36.5 37.5 38.5 39.5 40.5 41.5 42.5 43.5 44.5 45.5 46.5 47.5 48.5 49.5 50.5 51.5 52.5 53.5 54.5 55.5 56.5 57.5 58.5 59.5 60.5 61.5 62.5 63.5 64.5 65.5 66.5 67.5 68.5 69.5 70.5 71.5 72.5 73.5 74.5 75.5 76.5 77.5 78.5 79.5 80.5 81.5 82.5 83.5 84.5 85.5 86.5 87.5 88.5 89.5 90.5 91.5 92.5 93.5 94.5 95.5 96.5 97.5 98.5 99.5 
Y_COORDINATES 40 float
0.5 1.5 2.5 3.5 4.5 5.5 6.5 7.5 8.5 9.5 10.5 11.5 12.5 13.5 14.5 15.5 16.5 17.5 18.5 19.5 20.5 21.5 22.5 23.5 24.5 25.5 26.5 27.5 28.5 29.5 30.5 31.5 32.5 33.5 34.5 35.5 36.5 37.5 38.5 39.5 
Z_COORDINATES 1 float
0
POINT_DATA 4000
SCALARS density_difference float 1
LOOKUP_TABLE default
0.000759528
0.000767479
0.0007739
0.000778123
0.000777098
0.00076836
0.00075173
0.000733171
0.000705105
0.00065591
0.000604136
0.000548062
0.000462335
0.000368537
0.000275396
0.000158387
3.58658e-05
-8.30102e-05
-0.000214001
-0.000335629
-0.000443866
-0.000559165
-0.000652003
-0.000721579
-0.000794524
-0.000846396
-0.000873872
-0.000902986
-0.000918133
-0.00091469
-0.000911255
-0.000903458
-0.000884518
-0.000861021
-0.000838786
-0.00081489
-0.000784872
-0.000753817
-0.000726228
-0.000697172
-0.000664619
-0.000633823
-0.000605438
-0.000575507
-0.000544623
-0.000515863
-0.000488098
-0.000459409
-0.000431053
-0.000404219
-0.000377621
-0.000350725
-0.000324512
-0.000299143
-0.000273746
-0.00024843
-0.000223687
-0.000199313
-0.000174885
-0.000150666
-0.000126777
-0.000103009
-7.92209e-05
-5.56114e-05
-3.21268e-05
-8.67227e-06
1.47915e-05
3.81646e-05
6.15211e-05
8.48651e-05
0.00010825
0.000131612
0.000154973
0.000178335
0.000201794
0.000225224
0.00024861
0.000272061
0.000295641
0.00031906
0.000342423
0.00036599
0.000389563
0.00041273
0.000436005
0.0004596
0.000482734
0.000505284
0.000528408
0.000551563
0.000573364
0.000594926
0.000617559
0.000638856
0.000658003
0.000678099
0.000698502
0.000715065
0.000729984
0.000746282
0.000750347
0.000758245
0.000764009
0.000766262
0.000762918
0.000749656
0.000734145
0.000717469
0.000678095
0.000626267
0.000586146
0.000521171
0.000424863
0.000342307
0.000254319
0.000130891
6.9121e-06
-9.99503e-05
-0.00022074
-0.000349424
-0.000451613
-0.000550374
-0.000646991
-0.000711668
-0.000773009
-0.000833285
-0.000855567
-0.000871363
-0.00089788
-0.000899457
-0.000884201
-0.000877122
-0.000868346
-0.000845657
-0.000817507
-0.000796025
-0.000773518
-0.000742318
-0.000711145
-0.000685483
-0.000657457
-0.000625504
-0.000595839
-0.000568943
-0.00054
-0.000510194
-0.000482482
-0.000455819
-0.000427984
-0.000400579
-0.000374488
-0.000348697
-0.000322428
-0.0002969
-0.000271998
-0.000247171
-0.000222243
-0.000197946
-0.000173834
-0.000149781
-0.000125756
-0.000102146
-7.84932e-05
-5.49327e-05
-3.13903e-05
-8.0811e-06
1.53659e-05
3.86932e-05
6.2059e-05
8.53116e-05
0.000108723
0.000131992
0.000155364
0.000178691
0.00020214
0.000225426
0.00024889
0.000272317
0.000295762
0.000319052
0.000342613
0.000366023
0.00038929
0.000412513
0.000436044
0.000459089
0.000481877
0.00050488
0.000527951
0.000549929
0.000571812
0.000594153
0.000615655
0.000635407
0.000655666
0.000675902
0.000693547
0.00070933
0.000725809
0.000740098
0.000744391
0.000754966
0.00075889
0.000756085
0.000751931
0.000744135
0.000726887
0.00069572
0.000661001
0.000625459
0.000563258
0.000483707
0.000418601
0.000327941
0.000207767
0.000106387
-4.85307e-06
-0.000137971
-0.000251009
-0.000363743
-0.00048082
-0.000565534
-0.000649716
-0.000733097
-0.000776908
-0.00081533
-0.000858825
-0.000872894
-0.000874931
-0.000882271
-0.000879158
-0.000863583
-0.000845287
-0.000830268
-0.000809585
-0.000781116
-0.000754943
-0.000732028
-0.000703571
-0.000672773
-0.000645555
-0.000619076
-0.000589223
-0.000560058
-0.000533152
-0.000505952
-0.000477395
-0.00045029
-0.000424135
-0.000397655
-0.000370937
-0.000345466
-0.000320183
-0.000294846
-0.00026967
-0.000245308
-0.000220816
-0.0001965
-0.000172346
-0.000148657
-0.000124759
-0.000101128
-7.7524e-05
-5.41903e-05
-3.06458e-05
-7.35588e-06
1.60304e-05
3.92255e-05
6.26362e-05
8.58376e-05
0.000109192
0.000132386
0.000155821
0.00017906
0.000202449
0.000225718
0.000249243
0.000272505
0.000295908
0.000319272
0.000342813
0.000365935
0.000389284
0.000412661
0.000435908
0.000458589
0.000481779
0.000504811
0.000527077
0.00054894
0.000571682
0.000593323
0.000613458
0.000634054
0.000655212
0.000673114
0.000689602
0.000707679
0.000723715
0.000734032
0.000745226
0.000751427
0.000754872
0.000755617
0.000749778
0.000739502
0.000721849
0.000689594
0.000657804
0.000617534
0.000545219
0.000473407
0.000406667
0.000298241
0.000178941
7.62512e-05
-4.1398e-05
-0.0001814
-0.000304866
-0.000407374
-0.000522874
-0.000620645
-0.000689133
-0.000763652
-0.000813483
-0.000833693
-0.000868957
-0.000890092
-0.000878387
-0.000874882
-0.000875228
-0.000860567
-0.000835817
-0.000815408
-0.000798183
-0.000773139
-0.000742618
-0.000717662
-0.000693573
-0.000664507
-0.000634665
-0.000608701
-0.000581945
-0.000553152
-0.000525159
-0.00049927
-0.000472386
-0.000445144
-0.000418831
-0.000393555
-0.000367533
-0.000341899
-0.000316871
-0.000292337
-0.000267347
-0.000242958
-0.000218795
-0.000194906
-0.000170755
-0.000147153
-0.000123496
-0.000100057
-7.64322e-05
-5.32224e-05
-2.98015e-05
-6.60297e-06
1.67834e-05
3.98789e-05
6.32456e-05
8.63706e-05
0.000109723
0.000132867
0.000156272
0.000179418
0.00020285
0.000226098
0.000249534
0.000272723
0.000296263
0.000319538
0.000342893
0.000366087
0.000389637
0.000412678
0.000435745
0.000458823
0.000482028
0.00050432
0.000526803
0.000549394
0.000571387
0.000592109
0.000613509
0.0006345
0.000653539
0.000671496
0.000690461
0.00070694
0.000720159
0.000733182
0.000747404
0.000751479
0.000757717
0.000761146
0.000753495
0.000738413
0.000722158
0.000699938
0.000659258
0.000598053
0.000545686
0.000483125
0.000366374
0.000259402
0.000174397
2.55954e-05
-0.000122196
-0.000231064
-0.000369319
-0.000501059
-0.000594086
-0.000702611
-0.000775276
-0.000811374
-0.000871504
-0.00090612
-0.000895304
-0.000902798
-0.000911592
-0.000896127
-0.000870883
-0.000854901
-0.000841582
-0.000813839
-0.000782339
-0.000761937
-0.000738847
-0.000707259
-0.000678345
-0.000655053
-0.000627709
-0.000597846
-0.000571042
-0.000546091
-0.00051836
-0.000490929
-0.000465347
-0.000440092
-0.000413456
-0.000387949
-0.000363164
-0.000338368
-0.000313064
-0.000288829
-0.000264637
-0.000240531
-0.000216273
-0.000192776
-0.000169025
-0.000145506
-0.000121879
-9.87484e-05
-7.52783e-05
-5.211e-05
-2.87625e-05
-5.76029e-06
1.75934e-05
4.06412e-05
6.39356e-05
8.69546e-05
0.000110328
0.000133404
0.000156754
0.000179869
0.000203337
0.000226478
0.0002499
0.000273135
0.000296671
0.000319791
0.000343241
0.00036654
0.000389947
0.000412846
0.00043623
0.00045935
0.000482171
0.000504555
0.000527655
0.00054991
0.000571327
0.000592831
0.00061495
0.000634743
0.000653562
0.000673496
0.000692436
0.000706718
0.000721299
0.000737127
0.000750304
0.000762336
0.000767815
0.000764106
0.000762333
0.00075394
0.000730796
0.000704543
0.000665987
0.000606289
0.000548401
0.000464258
0.000347105
0.000244869
0.000120245
-3.97982e-05
-0.000187825
-0.000325304
-0.00046773
-0.000618091
-0.000718045
-0.000804389
-0.00088954
-0.000926055
-0.000947299
-0.000980235
-0.000968111
-0.000947712
-0.00094359
-0.000923206
-0.000893051
-0.000863942
-0.000838964
-0.000815
-0.000783108
-0.000752216
-0.000726851
-0.000700393
-0.000669875
-0.000641998
-0.00061627
-0.000589438
-0.000561226
-0.000535245
-0.000509708
-0.000483602
-0.000457247
-0.000432501
-0.00040747
-0.000382381
-0.000357424
-0.000333494
-0.000309058
-0.000284932
-0.000260913
-0.000237507
-0.000213618
-0.000190202
-0.000166714
-0.000143622
-0.000120127
-9.7105e-05
-7.38435e-05
-5.08995e-05
-2.76022e-05
-4.7066e-06
1.85269e-05
4.14518e-05
6.47264e-05
8.76745e-05
0.000110984
0.000133975
0.000157346
0.000180429
0.000203833
0.000226926
0.000250447
0.000273634
0.00029707
0.000320261
0.000343886
0.000367005
0.000390345
0.000413582
0.00043707
0.000459767
0.000482859
0.00050592
0.000528654
0.000550409
0.000573029
0.000595168
0.000615921
0.000636093
0.000657565
0.000676728
0.000693465
0.00071113
0.000728866
0.00074037
0.00076231
0.000775209
0.000778777
0.000778175
0.000779885
0.000771673
0.000748425
0.00071593
0.000679143
0.000632616
0.000545455
0.000432637
0.000357926
0.000228327
1.93927e-05
-0.000105422
-0.000244453
-0.000465653
-0.000616984
-0.000739807
-0.000882618
-0.000950683
-0.00101566
-0.00108837
-0.001065
-0.00104051
-0.00106373
-0.00103731
-0.000981995
-0.00094496
-0.000925739
-0.000893305
-0.00084269
-0.000810008
-0.000787823
-0.000752646
-0.000714867
-0.000689143
-0.000663456
-0.000631901
-0.000602461
-0.000578387
-0.000552051
-0.000524195
-0.000498533
-0.000474783
-0.000449072
-0.00042373
-0.000399631
-0.00037605
-0.000351286
-0.000327439
-0.000303965
-0.000280642
-0.000256709
-0.000233642
-0.000210425
-0.000187384
-0.00016399
-0.000141247
-0.000118128
-9.52767e-05
-7.21235e-05
-4.94394e-05
-2.63137e-05
-3.50904e-06
1.96247e-05
4.23955e-05
6.56147e-05
8.84935e-05
0.000111733
0.000134665
0.000158034
0.000181042
0.000204432
0.000227552
0.000251067
0.00027418
0.00029771
0.000320987
0.000344544
0.000367659
0.000391277
0.000414565
0.00043791
0.000460864
0.000484434
0.000507347
0.000530025
0.000552597
0.000575725
0.000597379
0.000618685
0.000640485
0.000661986
0.000680557
0.000699468
0.000719249
0.000735772
0.00074786
0.000779745
0.000785663
0.000796101
0.000808151
0.000800947
0.000785618
0.000779954
0.000751289
0.000695604
0.000642624
0.000562142
0.000450693
0.00033252
0.000162777
-5.96496e-06
-0.000177221
-0.000394205
-0.000585379
-0.000768934
-0.00091014
-0.00106386
-0.00115918
-0.00117577
-0.00120158
-0.00122311
-0.00117464
-0.00113882
-0.00109818
-0.00104813
-0.00100468
-0.000948009
-0.000904666
-0.000868031
-0.000822143
-0.00078022
-0.000748911
-0.000715769
-0.000680322
-0.000649236
-0.000622349
-0.000593344
-0.000564738
-0.000538784
-0.000514073
-0.000487799
-0.000462852
-0.000439016
-0.000415283
-0.000390737
-0.000367523
-0.000344368
-0.000321192
-0.000297682
-0.000275132
-0.000252164
-0.000229371
-0.000206372
-0.000183981
-0.000161063
-0.000138479
-0.000115627
-9.31859e-05
-7.02462e-05
-4.76857e-05
-2.47668e-05
-2.18602e-06
2.08548e-05
4.35377e-05
6.66286e-05
8.93909e-05
0.000112607
0.000135495
0.000158783
0.000181747
0.000205188
0.000228284
0.000251735
0.000274909
0.000298573
0.00032178
0.000345328
0.000368716
0.00039248
0.000415587
0.000439186
0.000462726
0.000486223
0.000508946
0.000532606
0.000555931
0.000578404
0.00060052
0.000624118
0.000646014
0.00066624
0.000687675
0.000710056
0.000727366
0.000743725
0.00076384
0.000795304
0.000808717
0.000824041
0.000831354
0.000828469
0.000824506
0.000813688
0.000782894
0.000735117
0.000664233
0.000584754
0.000488941
0.000291905
9.96013e-05
3.21137e-06
-0.000276933
-0.000563637
-0.000686965
-0.000926538
-0.00113742
-0.00122823
-0.00135625
-0.0013969
-0.00131513
-0.00134316
-0.00133613
-0.00121997
-0.00115075
-0.00111071
-0.00106281
-0.000984633
-0.000917904
-0.000882737
-0.000838723
-0.000783147
-0.000743356
-0.000712287
-0.000675387
-0.000638458
-0.000609949
-0.000582478
-0.000552881
-0.000525117
-0.000501229
-0.000476371
-0.000451128
-0.000427286
-0.000404998
-0.0003815
-0.000358387
-0.000335908
-0.00031396
-0.000291087
-0.000268837
-0.00024662
-0.000224618
-0.00020199
-0.000179949
-0.000157601
-0.000135451
-0.000112834
-9.06923e-05
-6.81005e-05
-4.5761e-05
-2.3005e-05
-6.27956e-07
2.22368e-05
4.48029e-05
6.7785e-05
9.04486e-05
0.000113593
0.000136407
0.000159654
0.000182617
0.000206026
0.00022908
0.000252601
0.000275844
0.000299463
0.000322726
0.000346511
0.000369959
0.000393681
0.000417116
0.000441116
0.00046459
0.000488261
0.000511831
0.000535868
0.000559013
0.000582438
0.000606016
0.000629575
0.000651713
0.000674547
0.000697558
0.000719175
0.000738815
0.000760029
0.000780037
0.000816113
0.000841396
0.000853175
0.000854763
0.000871741
0.000878627
0.000845228
0.000817795
0.000801904
0.000718551
0.000599703
0.000495149
0.000328783
0.000118419
-0.000133187
-0.00038358
-0.000533949
-0.000825817
-0.00111931
-0.00134263
-0.00141185
-0.00148455
-0.00157425
-0.00155554
-0.00143065
-0.0013704
-0.00130805
-0.00126447
-0.00116863
-0.00106559
-0.00102216
-0.000965097
-0.000887499
-0.000835347
-0.000797016
-0.000748886
-0.000701255
-0.000666888
-0.000634523
-0.000598886
-0.000567127
-0.000541274
-0.000514047
-0.000486679
-0.000462388
-0.000439913
-0.000415784
-0.000392687
-0.000370949
-0.000349378
-0.000326776
-0.000305261
-0.000283871
-0.000262361
-0.000240305
-0.000219013
-0.000197299
-0.000175618
-0.000153562
-0.000131984
-0.000109851
-8.79127e-05
-6.56003e-05
-4.36173e-05
-2.10981e-05
1.15191e-06
2.3814e-05
4.61908e-05
6.90702e-05
9.1664e-05
0.000114682
0.000137421
0.000160657
0.000183594
0.000206935
0.000230022
0.000253616
0.000276845
0.000300472
0.000323931
0.000347846
0.000371266
0.000395195
0.000419072
0.000443156
0.000466661
0.000491043
0.00051529
0.000539191
0.000562831
0.000587936
0.000612084
0.000635256
0.000659469
0.000685238
0.000707708
0.000729577
0.000755078
0.000779258
0.00079587
0.000845723
0.000866349
0.00088463
0.000903807
0.000916268
0.000913669
0.000908328
0.000893768
0.000843287
0.000773509
0.000678073
0.000514684
0.000370465
0.000176838
-0.000253602
-0.000443512
-0.000506343
-0.000911617
-0.00114043
-0.00141146
-0.00170268
-0.00173198
-0.00161372
-0.0016626
-0.00153052
-0.00143141
-0.00140855
-0.00131052
-0.00120749
-0.00110615
-0.00103948
-0.00098051
-0.000906244
-0.000845024
-0.000797583
-0.000748583
-0.000700265
-0.000660408
-0.000624707
-0.000589396
-0.000556158
-0.000527689
-0.000500813
-0.000474303
-0.000449035
-0.000426353
-0.000403799
-0.000381379
-0.000359521
-0.000338864
-0.000317648
-0.000296599
-0.000275641
-0.000255152
-0.000233977
-0.000213056
-0.000191913
-0.000170965
-0.000149411
-0.000128144
-0.000106482
-8.4972e-05
-6.29493e-05
-4.12013e-05
-1.89883e-05
3.03797e-06
2.55253e-05
4.77621e-05
7.04751e-05
9.2955e-05
0.000115885
0.000138584
0.000161736
0.000184624
0.000207985
0.000231115
0.000254652
0.000277934
0.000301735
0.000325257
0.000349143
0.000372864
0.000397126
0.000420981
0.000445252
0.000469536
0.000494239
0.000518387
0.000543239
0.00056823
0.000593252
0.000617781
0.000643551
0.000669166
0.000694226
0.000719328
0.000745994
0.000771295
0.00079542
0.000820343
0.000875178
0.000894581
0.000924686
0.000955999
0.00096048
0.000962995
0.00099075
0.000972209
0.000891823
0.000853561
0.000793997
0.000586293
0.000378441
0.000219969
-5.85215e-05
-0.000440773
-0.000849316
-0.000809744
-0.000946709
-0.00129358
-0.00132643
-0.00163435
-0.00173209
-0.00151254
-0.00159437
-0.00160158
-0.00150291
-0.00128262
-0.00121075
-0.0011779
-0.00105739
-0.000965767
-0.000923596
-0.000865082
-0.000793152
-0.00074292
-0.000703823
-0.000656799
-0.000612188
-0.000579803
-0.000548637
-0.000514919
-0.000485957
-0.000462421
-0.000437465
-0.000412553
-0.000390746
-0.000370453
-0.000348671
-0.000327707
-0.000307898
-0.000288109
-0.000267359
-0.000247346
-0.00022733
-0.00020709
-0.000186269
-0.000165909
-0.000145095
-0.000124196
-0.000102863
-8.17998e-05
-6.01921e-05
-3.86524e-05
-1.67032e-05
5.05282e-06
2.73268e-05
4.94483e-05
7.19823e-05
9.43342e-05
0.000117176
0.000139823
0.000162876
0.000185754
0.000209116
0.000232239
0.000255767
0.000279168
0.000303039
0.000326599
0.000350635
0.000374642
0.000399011
0.000423019
0.000447764
0.000472519
0.000497347
0.000522013
0.000547919
0.000573495
0.000598759
0.000624767
0.000652456
0.000678539
0.000704446
0.000733182
0.000762669
0.000787769
0.0008151
0.000847898
0.000902031
0.000937548
0.000967509
0.000991573
0.00102204
0.00104738
0.00104461
0.0010334
0.00103397
0.000967377
0.000821691
0.000718476
0.000546861
0.00025434
0.000192655
-0.000311962
-0.00110786
-0.000494033
-0.000439754
-0.00101802
-0.000528236
-0.000965622
-0.00118998
-0.00100142
-0.00156632
-0.00168125
-0.00143475
-0.00135122
-0.00124353
-0.00115017
-0.00106779
-0.00099598
-0.00092674
-0.00085763
-0.000799699
-0.000747983
-0.000696493
-0.000650202
-0.000609091
-0.000570659
-0.000535893
-0.000505189
-0.000475798
-0.000448699
-0.00042448
-0.000401709
-0.000379016
-0.000358001
-0.000337991
-0.000318108
-0.000298039
-0.000278856
-0.000259526
-0.000240042
-0.000220282
-0.000200862
-0.000180902
-0.000160867
-0.000140477
-0.000120189
-9.93311e-05
-7.85065e-05
-5.72697e-05
-3.60902e-05
-1.44051e-05
7.18618e-06
2.92116e-05
5.11454e-05
7.35353e-05
9.58085e-05
0.000118506
0.000141068
0.000164082
0.000186966
0.000210241
0.000233377
0.000257001
0.000280452
0.000304273
0.000328039
0.000352325
0.000376338
0.00040081
0.000425419
0.000450452
0.000475128
0.000500643
0.000526449
0.000552329
0.000578115
0.000605486
0.000632812
0.0006598
0.000687875
0.000718081
0.000746897
0.000775836
0.000807927
0.000840783
0.000870111
0.000932701
0.000976365
0.00101023
0.00103848
0.00108411
0.0011214
0.00111839
0.00112929
0.00115905
0.00107618
0.000935986
0.000887653
0.000738317
0.000406687
0.000137971
-0.000229524
-0.000579647
-0.000387801
-0.000270714
-0.000432748
-0.000466338
-0.000588921
-0.000471586
-0.000547283
-0.00105599
-0.00133939
-0.00135454
-0.00142052
-0.00127388
-0.00111583
-0.00107579
-0.00101401
-0.000919074
-0.000854524
-0.000809108
-0.000748891
-0.000687894
-0.000645174
-0.00060686
-0.000563022
-0.00052437
-0.000495466
-0.000466941
-0.000437309
-0.000412128
-0.000390889
-0.000368735
-0.00034693
-0.000327392
-0.000308785
-0.000289187
-0.000270112
-0.000251648
-0.000233057
-0.00021373
-0.00019473
-0.000175525
-0.000156044
-0.000136029
-0.000116158
-9.58171e-05
-7.53159e-05
-5.43759e-05
-3.34977e-05
-1.21217e-05
9.28867e-06
3.11018e-05
5.28632e-05
7.50896e-05
9.727e-05
0.000119838
0.000142343
0.00016529
0.000188141
0.000211379
0.000234565
0.000258187
0.000281673
0.000305589
0.000329511
0.000353846
0.000378034
0.000402809
0.000427665
0.000452855
0.000478029
0.000504129
0.000530273
0.00055665
0.000583546
0.000611828
0.000639747
0.000668062
0.000698216
0.000729868
0.000759997
0.000791761
0.000827717
0.000863278
0.000894982
0.0009663
0.00100342
0.00105179
0.00110279
0.00113797
0.00117466
0.00122838
0.00124826
0.00121381
0.00122217
0.00123533
0.00100468
0.000743179
0.000498497
6.34865e-06
-0.00023256
-0.000341304
-0.00050421
-0.000545728
-0.000350057
-0.000464857
-0.00040585
-0.000355508
-0.000393628
-0.000566209
-0.000834886
-0.00119593
-0.0012896
-0.00121529
-0.00116772
-0.00108252
-0.000985118
-0.000922755
-0.000868868
-0.000799748
-0.000740437
-0.000693933
-0.000643239
-0.000594159
-0.000556564
-0.000521591
-0.000485259
-0.000454543
-0.000429442
-0.000403872
-0.000379229
-0.000358231
-0.000338679
-0.000318324
-0.000299092
-0.000281095
-0.00026295
-0.000244224
-0.0002261
-0.000207909
-0.000189304
-0.000170269
-0.000151401
-0.000132039
-0.000112394
-9.23579e-05
-7.23017e-05
-5.17135e-05
-3.09956e-05
-9.8876e-06
1.12646e-05
3.28868e-05
5.45486e-05
7.65936e-05
9.8644e-05
0.000121125
0.0001436
0.000166435
0.000189249
0.000212508
0.000235718
0.000259269
0.000282853
0.000306921
0.000330863
0.000355212
0.000379773
0.000404783
0.000429586
0.000455138
0.000481122
0.000507295
0.00053347
0.000561189
0.000589202
0.000616994
0.000645984
0.000677454
0.000708033
0.000738799
0.000773582
0.000810299
0.000843856
0.000881053
0.000925231
0.000993658
0.00103796
0.00109115
0.00115101
0.00119859
0.00124138
0.00130849
0.00135817
0.00134929
0.00136357
0.00138266
0.00128502
0.000972818
0.000240989
-0.00032073
-0.000348026
-0.000436909
-0.000480958
-0.000431523
-0.00038558
-0.000459694
-0.000377166
-0.000345782
-0.000366306
-0.000389594
-0.000418683
-0.000734165
-0.00113605
-0.00124975
-0.0011614
-0.00103418
-0.000978738
-0.000938854
-0.000865516
-0.000790386
-0.000739595
-0.000693257
-0.000638833
-0.000588923
-0.000550484
-0.000514878
-0.000478531
-0.000446698
-0.000420583
-0.000395619
-0.000371239
-0.000349576
-0.000330135
-0.000310669
-0.00029165
-0.000273666
-0.000256127
-0.000238107
-0.00022023
-0.000202403
-0.00018439
-0.000165834
-0.000147235
-0.000128281
-0.000109049
-8.93307e-05
-6.95102e-05
-4.92382e-05
-2.87672e-05
-7.87219e-06
1.31141e-05
3.45351e-05
5.6062e-05
7.79705e-05
9.99389e-05
0.000122309
0.000144719
0.000167494
0.000190311
0.000213514
0.000236722
0.000260321
0.000283974
0.000308018
0.000332083
0.000356627
0.000381273
0.000406345
0.000431553
0.000457425
0.000483466
0.000510057
0.000537098
0.000565085
0.000593337
0.000622487
0.000652722
0.000684266
0.000716206
0.00074983
0.000785731
0.000823205
0.000860928
0.000902119
0.00094787
0.0010152
0.00107645
0.00112775
0.00117924
0.00125444
0.00132649
0.00137173
0.00142921
0.00151168
0.00151881
0.0014647
0.00159071
0.00118657
4.02954e-05
-0.000478405
-0.000436724
-0.00039473
-0.000365918
-0.000409568
-0.000469607
-0.00036617
-0.000355173
-0.000413916
-0.000366993
-0.000258308
-0.000255483
-0.000466713
-0.00094408
-0.00117154
-0.00109479
-0.00105041
-0.000999388
-0.000911706
-0.000845194
-0.000804603
-0.000745308
-0.000677484
-0.000631949
-0.000593592
-0.000545771
-0.000503425
-0.000473701
-0.000443948
-0.000412274
-0.000386771
-0.000365882
-0.000343677
-0.000322169
-0.000303851
-0.000286285
-0.000267713
-0.000249941
-0.000233028
-0.000215681
-0.000197707
-0.000180059
-0.000162204
-0.000143822
-0.000124998
-0.000106161
-8.68278e-05
-6.71373e-05
-4.70654e-05
-2.68635e-05
-6.17366e-06
1.47214e-05
3.59754e-05
5.73515e-05
7.91539e-05
0.000101075
0.000123332
0.000145674
0.000168422
0.000191237
0.000214365
0.000237591
0.000261253
0.000284922
0.000308933
0.00033317
0.000357863
0.000382487
0.000407683
0.000433343
0.000459331
0.000485332
0.000512557
0.000540353
0.00056814
0.000596757
0.000627669
0.000658489
0.000689344
0.000723515
0.000760438
0.000795295
0.000832744
0.000877724
0.00092245
0.00096335
0.00103666
0.00109422
0.00115701
0.00122119
0.00129323
0.00137516
0.00144491
0.0015087
0.00160815
0.00166696
0.00165564
0.00171941
0.000710266
-0.000301841
-0.000329591
-0.000397455
-0.000406586
-0.000399292
-0.000409317
-0.000405135
-0.000362147
-0.000381861
-0.000350018
-0.000318177
-0.000283253
-0.000286044
-0.000296857
-0.000680444
-0.00109587
-0.00107445
-0.00105137
-0.000975962
-0.000904987
-0.000853655
-0.000796704
-0.000735279
-0.000680976
-0.000631605
-0.000584518
-0.000541749
-0.000503115
-0.000467952
-0.000436702
-0.000408699
-0.000382795
-0.000359317
-0.00033806
-0.00031808
-0.000298905
-0.000280832
-0.000263347
-0.000246032
-0.000228764
-0.000211702
-0.000194417
-0.000176903
-0.000159087
-0.000141091
-0.000122631
-0.000103882
-8.47226e-05
-6.53063e-05
-4.54258e-05
-2.53081e-05
-4.78236e-06
1.59554e-05
3.71e-05
5.84165e-05
8.01077e-05
0.000101944
0.000124147
0.000146475
0.00016915
0.000191929
0.000215076
0.000238328
0.000261922
0.000285639
0.000309776
0.000334019
0.000358665
0.00038355
0.000408943
0.000434487
0.000460656
0.000487296
0.00051454
0.000542159
0.000570916
0.00060042
0.000630707
0.000662101
0.00069543
0.000729694
0.000765489
0.000803914
0.000844905
0.000887372
0.000933522
0.000983647
0.001052
0.00110457
0.00117687
0.00125724
0.00132152
0.0013945
0.00150124
0.00160387
0.00166879
0.00173398
0.00186864
0.00157807
0.000301009
-0.000403849
-0.000284198
-0.000365268
-0.000424404
-0.000414403
-0.000368875
-0.000354631
-0.000403288
-0.000387244
-0.000303828
-0.000303693
-0.00031702
-0.000253395
-0.000212721
-0.000493561
-0.000970116
-0.0010958
-0.00100816
-0.000945069
-0.00092018
-0.000862476
-0.000780177
-0.000726833
-0.000688216
-0.000631533
-0.000575508
-0.000538644
-0.000504301
-0.000464188
-0.000430891
-0.00040621
-0.000380702
-0.000354892
-0.000333894
-0.000315391
-0.000295822
-0.000277068
-0.000260244
-0.000243472
-0.000225955
-0.000208921
-0.000192136
-0.000174809
-0.000156967
-0.000139177
-0.000121007
-0.000102342
-8.32645e-05
-6.40278e-05
-4.43021e-05
-2.42399e-05
-3.8112e-06
1.68133e-05
3.78761e-05
5.91559e-05
8.07721e-05
0.000102549
0.000124715
0.00014703
0.000169654
0.000192416
0.000215572
0.000238828
0.00026239
0.000286153
0.000310347
0.000334589
0.000359248
0.000384297
0.000409768
0.000435285
0.000461636
0.00048861
0.000515836
0.000543503
0.00057289
0.000602788
0.000632801
0.00066482
0.000699556
0.000733719
0.00076917
0.000810141
0.000853127
0.000893783
0.000941313
0.000998493
0.00105683
0.00112343
0.00118651
0.00125556
0.00134323
0.00143331
0.00151694
0.00161187
0.00171244
0.00185138
0.00200913
0.00144416
0.000344832
-0.000368453
-0.000422585
-0.000376147
-0.000353961
-0.00038172
-0.000401314
-0.000392776
-0.000359981
-0.000333454
-0.000351698
-0.000315413
-0.000275664
-0.00024305
-0.000192693
-0.000437328
-0.000834648
-0.00104102
-0.00101448
-0.000974097
-0.000901175
-0.000838647
-0.000794825
-0.000737153
-0.000673139
-0.000625581
-0.000584496
-0.000537766
-0.000495862
-0.000463973
-0.000433389
-0.000402527
-0.000376759
-0.000354974
-0.000333088
-0.000312226
-0.000293911
-0.000276445
-0.000258588
-0.000241383
-0.000224805
-0.000207963
-0.000190689
-0.000173532
-0.000156138
-0.00013828
-0.00012
-0.000101554
-8.26402e-05
-6.33457e-05
-4.36551e-05
-2.37308e-05
-3.35413e-06
1.72889e-05
3.82953e-05
5.95028e-05
8.11032e-05
0.000102891
0.000125008
0.000147281
0.000169922
0.000192704
0.000215797
0.000239045
0.000262689
0.000286442
0.000310538
0.000334892
0.000359691
0.000384583
0.000410017
0.000435925
0.000462275
0.000488852
0.000516508
0.000544837
0.000573543
0.000603188
0.000634833
0.000666953
0.000699801
0.000735588
0.000774019
0.000812118
0.000853368
0.000900897
0.000949611
0.000998205
0.00105683
0.00112343
0.00118651
0.00125556
0.00134323
0.00143331
0.00151694
0.00161187
0.00171244
0.00185138
0.00200913
0.00144416
0.000344832
-0.000368453
-0.000422585
-0.000376147
-0.000353961
-0.00038172
-0.000401314
-0.000392776
-0.000359981
-0.000333454
-0.000351698
-0.000315413
-0.000275664
-0.00024305
-0.000192693
-0.000437328
-0.000834648
-0.00104102
-0.00101448
-0.000974097
-0.000901175
-0.000838647
-0.000794825
-0.000737153
-0.000673139
-0.000625581
-0.000584496
-0.000537766
-0.000495862
-0.000463973
-0.000433389
-0.000402527
-0.000376759
-0.000354974
-0.000333088
-0.000312226
-0.000293911
-0.000276445
-0.000258588
-0.000241383
-0.000224805
-0.000207963
-0.000190689
-0.000173532
-0.000156138
-0.00013828
-0.00012
-0.000101554
-8.26402e-05
-6.33457e-05
-4.36551e-05
-2.37308e-05
-3.35413e-06
1.72889e-05
3.82953e-05
5.95028e-05
8.11032e-05
0.000102891
0.000125008
0.000147281
0.000169922
0.000192704
0.000215797
0.000239045
0.000262689
0.000286442
0.000310538
0.000334892
0.000359691
0.000384583
0.000410017
0.000435925
0.000462275
0.000488852
0.000516508
0.000544837
0.000573543
0.000603188
0.000634833
0.000666953
0.000699801
0.000735588
0.000774019
0.000812118
0.000853368
0.000900897
0.000949611
0.000998205
0.001052
0.00110457
0.00117687
0.00125724
0.00132152
0.0013945
0.00150124
0.00160387
0.00166879
0.00173398
0.00186864
0.00157807
0.000301009
-0.000403849
-0.000284198
-0.000365268
-0.000424404
-0.000414403
-0.000368875
-0.000354631
-0.000403288
-0.000387244
-0.000303828
-0.000303693
-0.00031702
-0.000253395
-0.000212721
-0.000493561
-0.000970116
-0.0010958
-0.00100816
-0.000945069
-0.00092018
-0.000862476
-0.000780177
-0.000726833
-0.000688216
-0.000631533
-0.000575508
-0.000538644
-0.000504301
-0.000464188
-0.000430891
-0.00040621
-0.000380702
-0.000354892
-0.000333894
-0.000315391
-0.000295822
-0.000277068
-0.000260244
-0.000243472
-0.000225955
-0.000208921
-0.000192136
-0.000174809
-0.000156967
-0.000139177
-0.000121007
-0.000102342
-8.32645e-05
-6.40278e-05
-4.43021e-05
-2.42399e-05
-3.8112e-06
1.68133e-05
3.78761e-05
5.91559e-05
8.07721e-05
0.000102549
0.000124715
0.00014703
0.000169654
0.000192416
0.000215572
0.000238828
0.00026239
0.000286153
0.000310347
0.000334589
0.000359248
0.000384297
0.000409768
0.000435285