# vtk DataFile Version 3.0
fluid_state
ASCII
DATASET RECTILINEAR_GRID
DIMENSIONS 100 40 1
X_COORDINATES 100 float
0.5 1.5 2.5 3.5 4.5 5.5 6.5 7.5 8.5 9.5 10.5 11.5 12.5 13.5 14.5 15.5 16.5 17.5 18.5 19.5 20.5 21.5 22.5 23.5 24.5 25.5 26.5 27.5 28.5 29.5 30.5 31.5 32.5 33.5 34.5 35.5 36.5 37.5 38.5 39.5 40.5 41.5 42.5 43.5 44.5 45.5 46.5 47.5 48.5 49.5 50.5 51.5 52.5 53.5 54.5 55.5 56.5 57.5 58.5 59.5 60.5 61.5 62.5 63.5 64.5 65.5 66.5 67.5 68.5 69.5 70.5 71.5 72.5 73.5 74.5 75.5 76.5 77.5 78.5 79.5 80.5 81.5 82.5 83.5 84.5 85.5 86.5 87.5 88.5 89.5 90.5 91.5 92.5 93.5 94.5 95.5 96.5 97.5 98.5 99.5 
Y_COORDINATES 40 float
0.5 1.5 2.5 3.5 4.5 5.5 6.5 7.5 8.5 9.5 10.5 11.5 12.5 13.5 14.5 15.5 16.5 17.5 18.5 19.5 20.5 21.5 22.5 23.5 24.5 25.5 26.5 27.5 28.5 29.5 30.5 31.5 32.5 33.5 34.5 35.5 36.5 37.5 38.5 39.5 
Z_COORDINATES 1 float
0
POINT_DATA 4000
SCALARS density_difference float 1
LOOKUP_TABLE default
0.000759658
0.000768336
0.000775246
0.000780027
0.000779621
0.000771501
0.000755878
0.000738269
0.000711486
0.000664648
0.000615202
0.000561785
0.000480533
0.000391276
0.000302854
0.000192245
7.60634e-05
-3.67605e-05
-0.00016069
-0.000276278
-0.000379511
-0.000489273
-0.000578411
-0.000645942
-0.000716656
-0.000767981
-0.000796324
-0.00082637
-0.000843629
-0.000843281
-0.000842829
-0.00083855
-0.000823904
-0.000804758
-0.000786706
-0.000767363
-0.000742216
-0.000715815
-0.000692741
-0.000668425
-0.000640576
-0.000614236
-0.000590244
-0.000564711
-0.000538033
-0.000513293
-0.000489441
-0.000464529
-0.000439732
-0.000416282
-0.000392898
-0.000369028
-0.000345622
-0.000322873
-0.000299894
-0.000276797
-0.000254056
-0.000231494
-0.000208672
-0.000185868
-0.000163186
-0.000140446
-0.00011749
-9.45401e-05
-7.1526e-05
-4.83819e-05
-2.50517e-05
-1.66347e-06
2.18744e-05
4.55364e-05
6.93914e-05
9.33451e-05
0.000117441
0.000141646
0.000166073
0.000190563
0.000215131
0.000239837
0.000264761
0.000289596
0.000314465
0.000339562
0.000364729
0.000389541
0.000414494
0.000439737
0.000464576
0.000488842
0.000513621
0.000538377
0.000561849
0.000584982
0.000609035
0.000631757
0.000652349
0.00067361
0.000695076
0.000712789
0.000728669
0.000745626
0.00075086
0.000759325
0.000765896
0.000768886
0.000766091
0.000753778
0.000739525
0.000723579
0.000686071
0.000636843
0.000598697
0.00053682
0.000445384
0.000367089
0.000283776
0.000166654
4.95221e-05
-5.18013e-05
-0.000166549
-0.000288443
-0.000385702
-0.00048039
-0.00057288
-0.000635697
-0.000695496
-0.000754854
-0.000778433
-0.000795868
-0.000823741
-0.000828401
-0.000816903
-0.000813275
-0.000808149
-0.000790025
-0.000766502
-0.000749331
-0.000731292
-0.000705024
-0.000678503
-0.000657321
-0.000633868
-0.000606557
-0.000581225
-0.000558591
-0.000533836
-0.000508118
-0.000484229
-0.000461303
-0.000437018
-0.000413018
-0.000390075
-0.000367315
-0.000343839
-0.000320945
-0.000298422
-0.000275836
-0.000252897
-0.000230435
-0.000207905
-0.000185298
-0.000162469
-0.000139917
-0.00011708
-9.42151e-05
-7.11304e-05
-4.81649e-05
-2.4838e-05
-1.53181e-06
2.20316e-05
4.55669e-05
6.94637e-05
9.32931e-05
0.00011742
0.000141555
0.000165994
0.000190316
0.000214981
0.00023963
0.000264459
0.000289144
0.000314225
0.000339147
0.000364066
0.000388899
0.000414123
0.000438836
0.000463389
0.000488041
0.00051282
0.000536471
0.000560034
0.000583868
0.00060695
0.000628191
0.000649811
0.000671245
0.000690222
0.000707071
0.000724468
0.000739688
0.000745059
0.000756301
0.000761187
0.000759125
0.000755841
0.000748938
0.000732747
0.000703158
0.000670426
0.000636446
0.000577489
0.000501994
0.000440081
0.000354314
0.000240793
0.00014446
3.94642e-05
-8.63483e-05
-0.000193659
-0.000300718
-0.000411816
-0.000493295
-0.000574028
-0.000654636
-0.000698177
-0.000736691
-0.000780398
-0.000796755
-0.00080131
-0.000811317
-0.000811645
-0.000800249
-0.000785919
-0.000775051
-0.0007589
-0.000735251
-0.00071351
-0.00069523
-0.000671502
-0.0006454
-0.000622601
-0.000600677
-0.00057521
-0.000550349
-0.000527523
-0.000504407
-0.000479672
-0.000456305
-0.000433639
-0.000410576
-0.000386989
-0.000364552
-0.000342023
-0.000319342
-0.000296528
-0.000274421
-0.000251894
-0.00022944
-0.000206856
-0.000184634
-0.000161918
-0.000139376
-0.000116578
-9.39654e-05
-7.08695e-05
-4.79552e-05
-2.46779e-05
-1.53024e-06
2.20868e-05
4.55422e-05
6.93975e-05
9.31271e-05
0.000117327
0.000141352
0.000165752
0.000190036
0.000214777
0.00023925
0.000264063
0.000288799
0.000313888
0.000338528
0.00036355
0.000388516
0.00041351
0.000437876
0.000462833
0.000487515
0.000511586
0.000535114
0.000559521
0.000582728
0.000604558
0.000626564
0.00064912
0.000668397
0.000686248
0.00070529
0.000722445
0.00073383
0.000745844
0.000753087
0.000757364
0.000758713
0.000754161
0.000744768
0.000728108
0.000697794
0.000667938
0.000629449
0.000560979
0.000492964
0.00043004
0.000327309
0.000214599
0.000117968
6.80193e-06
-0.00012566
-0.000241902
-0.000339673
-0.00044949
-0.000542829
-0.000609131
-0.000681609
-0.000731024
-0.000752722
-0.000788591
-0.000811882
-0.000803867
-0.000803784
-0.000807276
-0.000796874
-0.00077679
-0.000760874
-0.000747807
-0.000727663
-0.000701987
-0.000681653
-0.000662064
-0.000637853
-0.000612532
-0.000591029
-0.000568593
-0.000544195
-0.000520246
-0.000498389
-0.000475305
-0.000451831
-0.000428952
-0.000407076
-0.000384164
-0.000361574
-0.000339258
-0.000317381
-0.000294734
-0.00027261
-0.000250384
-0.000228369
-0.000205774
-0.000183654
-0.000161162
-0.000138831
-0.000116003
-9.35328e-05
-7.05503e-05
-4.77482e-05
-2.44629e-05
-1.43541e-06
2.21453e-05
4.55057e-05
6.93673e-05
9.30261e-05
0.000117207
0.000141126
0.000165578
0.000189822
0.000214495
0.000238887
0.000263843
0.000288483
0.000313421
0.000338121
0.00036335
0.000388003
0.000412858
0.000437586
0.00046259
0.000486595
0.000510894
0.000535099
0.000558866
0.000581228
0.00060425
0.000626661
0.000647318
0.000666614
0.000686818
0.000704478
0.000719013
0.000732854
0.000747991
0.000752996
0.000760066
0.000764329
0.00075779
0.0007437
0.000729047
0.000708174
0.000669503
0.000611811
0.000562581
0.000503152
0.000393353
0.000292386
0.00021242
7.26434e-05
-6.65314e-05
-0.000169529
-0.000299552
-0.000424429
-0.000513251
-0.000616964
-0.000687574
-0.000723992
-0.000783147
-0.000819399
-0.000812103
-0.00082238
-0.000834195
-0.00082327
-0.000802612
-0.000790988
-0.00078192
-0.000759351
-0.000732686
-0.000716946
-0.000698564
-0.000672041
-0.000647736
-0.000629138
-0.000606344
-0.000581111
-0.000558569
-0.000537959
-0.000514287
-0.000490928
-0.000469072
-0.000447565
-0.000424349
-0.000402243
-0.000380508
-0.000358747
-0.000336135
-0.000314551
-0.000292656
-0.000270817
-0.000248478
-0.000226854
-0.000204629
-0.000182604
-0.000160126
-0.00013811
-0.000115419
-9.30078e-05
-7.00864e-05
-4.74927e-05
-2.42304e-05
-1.2689e-06
2.22507e-05
4.54899e-05
6.938e-05
9.29546e-05
0.000117093
0.000140965
0.000165462
0.00018959
0.000214263
0.000238685
0.000263653
0.00028814
0.000313185
0.000337975
0.000363097
0.000387611
0.000412787
0.000437558
0.000462238
0.000486324
0.000511235
0.000535152
0.00055841
0.000581496
0.000605263
0.000626592
0.000647036
0.00066821
0.000688533
0.000704104
0.000719873
0.000736539
0.000750619
0.000763154
0.000769766
0.000767219
0.000766133
0.000758769
0.000737719
0.000712767
0.000676577
0.000620643
0.000566247
0.000486938
0.00037688
0.000281138
0.0001648
1.38779e-05
-0.000124491
-0.000253305
-0.000388192
-0.000530068
-0.000625183
-0.000708937
-0.000791364
-0.000829027
-0.000851997
-0.000886831
-0.000879164
-0.000863708
-0.000863407
-0.000847905
-0.000823019
-0.000799412
-0.000779104
-0.000760169
-0.000733544
-0.000707859
-0.000687162
-0.000665802
-0.000640133
-0.000617063
-0.000595839
-0.000573712
-0.00054981
-0.000528168
-0.000506658
-0.000484647
-0.000461989
-0.000440967
-0.000419312
-0.000397616
-0.000375663
-0.000354744
-0.000332952
-0.000311466
-0.000289704
-0.000268548
-0.00024654
-0.000224992
-0.000202999
-0.000181394
-0.000159025
-0.00013712
-0.000114617
-9.24334e-05
-6.95476e-05
-4.70699e-05
-2.39152e-05
-1.08549e-06
2.24237e-05
4.5579e-05
6.94145e-05
9.28944e-05
0.000117061
0.000140887
0.000165332
0.000189404
0.00021418
0.000238545
0.000263434
0.000287981
0.000313202
0.00033782
0.000362902
0.00038773
0.000413023
0.000437408
0.000462368
0.000487089
0.000511693
0.000535161
0.00055957
0.000583267
0.000605816
0.000627507
0.000650465
0.00067098
0.000689289
0.000708011
0.000726843
0.000739543
0.0007617
0.00077538
0.000780108
0.000780221
0.000782986
0.000776058
0.000754236
0.000723885
0.000690438
0.000646345
0.000564376
0.000459401
0.000389897
0.000268654
7.36065e-05
-4.30369e-05
-0.000172378
-0.000379666
-0.000522365
-0.00063885
-0.000774557
-0.000841587
-0.000905424
-0.000978399
-0.000960677
-0.000941424
-0.000967709
-0.000947291
-0.000898831
-0.000868015
-0.000853592
-0.000826929
-0.000782507
-0.000755326
-0.000738024
-0.000708488
-0.000675956
-0.000655323
-0.000634468
-0.000608009
-0.000583195
-0.000563794
-0.000541806
-0.000518396
-0.000496738
-0.000477046
-0.000455026
-0.000433423
-0.000412635
-0.000392404
-0.000370611
-0.000349754
-0.000328856
-0.000308138
-0.000286424
-0.000265581
-0.000244191
-0.000222998
-0.000201069
-0.000179796
-0.000157767
-0.000136026
-0.00011361
-9.16791e-05
-6.89458e-05
-4.65611e-05
-2.34922e-05
-8.18142e-07
2.26448e-05
4.57251e-05
6.94993e-05
9.29141e-05
0.000117083
0.000140831
0.000165268
0.000189357
0.000214135
0.000238426
0.000263413
0.000288035
0.000313206
0.000337822
0.000363175
0.000388056
0.000413237
0.000437865
0.000463291
0.000487894
0.000512472
0.000536704
0.00056163
0.000584912
0.000607985
0.000631212
0.000654294
0.000674272
0.000694584
0.000715393
0.000733223
0.000746347
0.000777925
0.000785014
0.000796157
0.000808467
0.000802937
0.000788982
0.000784209
0.000758121
0.000706285
0.000656537
0.000582347
0.000478574
0.000368954
0.000211183
5.43274e-05
-0.000103565
-0.000306164
-0.000486061
-0.000656607
-0.000791295
-0.000938638
-0.00103201
-0.00105238
-0.00108137
-0.0011071
-0.00106687
-0.00103786
-0.00100434
-0.000961064
-0.00092461
-0.000874801
-0.000837576
-0.000806722
-0.000767119
-0.000730736
-0.000705048
-0.000677293
-0.000647305
-0.000621225
-0.000599517
-0.00057527
-0.000551474
-0.000529914
-0.000509679
-0.000487442
-0.000466579
-0.000446399
-0.000426375
-0.000405114
-0.000385219
-0.000364963
-0.00034473
-0.00032375
-0.000303756
-0.000282937
-0.000262329
-0.000241112
-0.000220528
-0.000199024
-0.000177885
-0.000156089
-0.000134732
-0.0001125
-9.06814e-05
-6.8133e-05
-4.5961e-05
-2.29696e-05
-3.81502e-07
2.29649e-05
4.59312e-05
6.96894e-05
9.30556e-05
0.000117152
0.000140852
0.000165342
0.000189403
0.000214125
0.000238472
0.000263588
0.000288143
0.000313317
0.00033819
0.000363687
0.000388404
0.00041384
0.000439022
0.000464394
0.000488834
0.000514351
0.000539299
0.000563639
0.000587372
0.000612616
0.000635961
0.000657878
0.000680552
0.000704167
0.000722707
0.000740378
0.000761074
0.000792266
0.000806179
0.000822101
0.000830304
0.000828434
0.000825181
0.000816563
0.000788153
0.000743166
0.00067844
0.000606117
0.000516296
0.000334091
0.000157368
6.97177e-05
-0.000190069
-0.000456919
-0.000571812
-0.000796
-0.000996871
-0.00108582
-0.0012112
-0.00125701
-0.00118648
-0.00121926
-0.00121939
-0.00111436
-0.00105463
-0.00102159
-0.000980334
-0.000910048
-0.000850693
-0.000820992
-0.00078322
-0.000733887
-0.000699909
-0.000674197
-0.000643081
-0.000611455
-0.000588192
-0.000565596
-0.000541009
-0.000517744
-0.000498353
-0.000477574
-0.000456471
-0.00043628
-0.000417657
-0.000397413
-0.000377596
-0.000357956
-0.000338881
-0.000318481
-0.000298736
-0.000278599
-0.00025872
-0.000237819
-0.000217538
-0.000196548
-0.0001758
-0.0001542
-0.00013311
-0.00011119
-8.95688e-05
-6.71594e-05
-4.51731e-05
-2.23395e-05
1.42587e-07
2.33932e-05
4.6267e-05
6.99605e-05
9.3258e-05
0.000117318
0.000141016
0.000165477
0.000189499
0.000214289
0.000238699
0.000263778
0.000288389
0.000313786
0.000338719
0.000364187
0.000389216
0.000415031
0.000440164
0.000465715
0.00049095
0.000516833
0.000541641
0.000566879
0.00059198
0.000617228
0.000640833
0.000665166
0.000689344
0.000712337
0.000733024
0.000755196
0.000775963
0.000811208
0.000836397
0.000849016
0.000851615
0.000868608
0.00087603
0.000845657
0.000820317
0.000807121
0.000730606
0.000620156
0.000525416
0.000374206
0.000180105
-5.06741e-05
-0.000282538
-0.000419954
-0.000689976
-0.00096782
-0.00118094
-0.001252
-0.00132877
-0.00142121
-0.00141338
-0.00130257
-0.00125314
-0.00120007
-0.00116409
-0.00107823
-0.000984565
-0.000947144
-0.000896869
-0.000826149
-0.000780263
-0.000747698
-0.000705681
-0.000663825
-0.000635267
-0.000608308
-0.000578197
-0.00055153
-0.000530744
-0.000508136
-0.000485416
-0.00046527
-0.000446915
-0.00042647
-0.000407063
-0.000388534
-0.000370188
-0.000350397
-0.000331705
-0.000312705
-0.000293624
-0.000273596
-0.000254358
-0.000234297
-0.000214314
-0.00019357
-0.000173337
-0.000152169
-0.000131243
-0.000109568
-8.82658e-05
-6.60647e-05
-4.41829e-05
-2.15325e-05
7.80684e-07
2.39408e-05
4.67553e-05
7.03314e-05
9.35629e-05
0.000117614
0.000141289
0.000165685
0.000189742
0.0002146
0.000238999
0.000264084
0.000288885
0.000314403
0.000339313
0.00036498
0.00039043
0.000416323
0.000441493
0.000467719
0.000493596
0.000519353
0.000544637
0.000571461
0.000597104
0.000621989
0.00064755
0.000674654
0.000698329
0.000721538
0.000747745
0.000772742
0.00079028
0.000838204
0.000859211
0.000877842
0.000896671
0.000909736
0.000908427
0.000903832
0.000891223
0.000846464
0.000781734
0.000694565
0.000547892
0.000417402
0.000239987
-0.0001548
-0.000327717
-0.000385608
-0.000763885
-0.000977682
-0.00123581
-0.00152004
-0.00156193
-0.00146104
-0.0015175
-0.00139862
-0.00131194
-0.00129931
-0.00121161
-0.00111782
-0.00102565
-0.000965389
-0.000912811
-0.000845407
-0.000790282
-0.000748454
-0.000705745
-0.000663365
-0.000629312
-0.000599209
-0.000569655
-0.000541694
-0.00051842
-0.000496319
-0.000474566
-0.000453555
-0.000435041
-0.000416197
-0.000397466
-0.000378828
-0.00036135
-0.000342895
-0.000324613
-0.000305996
-0.000287854
-0.00026864
-0.000249703
-0.000230153
-0.000210828
-0.000190529
-0.000170549
-0.000149805
-0.000129253
-0.000107831
-8.67236e-05
-6.47997e-05
-4.31087e-05
-2.06129e-05
1.58382e-06
2.45906e-05
4.73103e-05
7.08056e-05
9.40079e-05
0.000117978
0.000141617
0.00016603
0.000190132
0.000214933
0.00023939
0.000264636
0.000289498
0.00031499
0.00034019
0.000366163
0.000391598
0.000417673
0.000443579
0.000470097
0.000495896
0.00052255
0.000549092
0.000575837
0.000601865
0.000629166
0.000656024
0.000682491
0.000708639
0.000736271
0.000762317
0.000787319
0.000812533
0.000865028
0.000884681
0.000914357
0.000944773
0.00095008
0.000953182
0.000980326
0.000964213
0.000890002
0.000856599
0.000806353
0.000615366
0.000426241
0.000289551
3.74548e-05
-0.000315097
-0.000700216
-0.00066806
-0.000805502
-0.0011403
-0.00117932
-0.00147827
-0.00157535
-0.00137504
-0.00146399
-0.00147926
-0.00139233
-0.00118878
-0.00112445
-0.00109721
-0.000985064
-0.000900139
-0.000863113
-0.000810593
-0.000744794
-0.000700481
-0.000667096
-0.00062618
-0.00058746
-0.000560807
-0.000535042
-0.000506798
-0.000482819
-0.000464059
-0.000443467
-0.000422858
-0.000404823
-0.000388176
-0.000369638
-0.000351858
-0.00033477
-0.000317666
-0.000299227
-0.0002815
-0.000263374
-0.000245036
-0.00022576
-0.000206951
-0.00018733
-0.000167653
-0.000147197
-0.000127033
-0.000105986
-8.50428e-05
-6.33561e-05
-4.18958e-05
-1.95933e-05
2.51528e-06
2.53562e-05
4.7971e-05
7.13837e-05
9.45495e-05
0.000118424
0.000142064
0.000166474
0.000190578
0.000215367
0.000239943
0.000265249
0.000290154
0.000315783
0.000341259
0.000367326
0.000392912
0.000419428
0.000445781
0.000472407
0.000498699
0.000526338
0.000553431
0.000580386
0.000607802
0.000636901
0.000664184
0.000691405
0.000720965
0.00075124
0.000777031
0.000804959
0.000837604
0.000889296
0.000923829
0.000953229
0.000976988
0.00100639
0.00103048
0.00102932
0.00102006
0.00102146
0.000962695
0.000831716
0.000739319
0.000588858
0.000326046
0.000275461
-0.000200468
-0.000962177
-0.000406731
-0.000368365
-0.000913788
-0.000453944
-0.000874379
-0.00108048
-0.000895164
-0.00144238
-0.00156194
-0.0013326
-0.0012591
-0.00115962
-0.00107302
-0.000997674
-0.000931425
-0.000867133
-0.000804038
-0.000751847
-0.000705687
-0.000660097
-0.000619989
-0.000584751
-0.000552226
-0.000523128
-0.000497956
-0.000473693
-0.000451577
-0.000431851
-0.000413395
-0.000394581
-0.000377277
-0.000360516
-0.000343778
-0.00032645
-0.000309912
-0.000292841
-0.000275577
-0.000257677
-0.000240084
-0.000221611
-0.00020306
-0.00018382
-0.000164684
-0.000144659
-0.00012468
-0.000103971
-8.33365e-05
-6.18876e-05
-4.05541e-05
-1.84818e-05
3.47257e-06
2.61815e-05
4.87407e-05
7.20158e-05
9.51183e-05
0.000118954
0.000142611
0.000166935
0.000191063
0.000215937
0.000240568
0.000265822
0.000290933
0.000316787
0.000342274
0.000368436
0.000394596
0.000421365
0.000447652
0.000474927
0.000502283
0.000529874
0.000557183
0.000586105
0.000614726
0.000643149
0.000672322
0.000703519
0.000733099
0.000762866
0.00079518
0.000828148
0.000857525
0.000916893
0.000959121
0.000991996
0.00101921
0.00106278
0.00109832
0.00109617
0.001107
0.00113701
0.00106262
0.000935468
0.000900368
0.000771412
0.000462519
0.000206525
-0.000157377
-0.000509648
-0.000341123
-0.000229361
-0.000382915
-0.00041395
-0.000530506
-0.000417715
-0.000482189
-0.000965747
-0.00124265
-0.00126264
-0.00132893
-0.00119297
-0.00104375
-0.00100724
-0.000950563
-0.000861449
-0.000801737
-0.00076124
-0.000706943
-0.000652028
-0.000615168
-0.000582706
-0.000545044
-0.000512278
-0.000488934
-0.000465655
-0.000441189
-0.000420664
-0.000403771
-0.00038557
-0.00036755
-0.000351311
-0.000335817
-0.000318971
-0.000302525
-0.000286297
-0.000269861
-0.000252367
-0.000235136
-0.000217373
-0.000199308
-0.00018041
-0.00016163
-0.000142082
-0.000122371
-0.000101932
-8.15502e-05
-6.03862e-05
-3.9195e-05
-1.73188e-05
4.4966e-06
2.70521e-05
4.9544e-05
7.26952e-05
9.57606e-05
0.00011953
0.000143171
0.000167454
0.000191642
0.000216507
0.000241182
0.000266518
0.000291785
0.000317678
0.000343339
0.000369777
0.000396175
0.000423083
0.000449843
0.000477653
0.000505331
0.000533373
0.000561719
0.000591481
0.000620652
0.00065028
0.000681386
0.00071392
0.000744683
0.000777011
0.000812941
0.0008484
0.000879826
0.000947227
0.000983204
0.00102959
0.00107779
0.00111129
0.00114619
0.00119659
0.00121533
0.00118552
0.00119618
0.00121289
0.00100772
0.000772795
0.000534676
4.79373e-05
-0.00019394
-0.000303167
-0.000453976
-0.000489352
-0.000307014
-0.000413738
-0.000352517
-0.000306569
-0.000343652
-0.000506798
-0.00076569
-0.00111549
-0.00120747
-0.00114047
-0.00109778
-0.0010162
-0.000923978
-0.00086629
-0.000816523
-0.000752633
-0.000699007
-0.000657996
-0.000613313
-0.000570483
-0.000538899
-0.000509733
-0.000479282
-0.000454037
-0.000434038
-0.000413229
-0.000393134
-0.000376161
-0.000360362
-0.000343392
-0.000327326
-0.000312069
-0.000296512
-0.000280044
-0.000264043
-0.000247646
-0.000230761
-0.000213152
-0.000195643
-0.000177358
-0.000158755
-0.000139489
-0.00012017
-0.000100056
-7.9794e-05
-5.88797e-05
-3.7907e-05
-1.62072e-05
5.53757e-06
2.79205e-05
5.03101e-05
7.33783e-05
9.64319e-05
0.00012009
0.000143714
0.000168012
0.000192234
0.000217026
0.000241809
0.00026728
0.000292572
0.000318474
0.000344498
0.000371141
0.000397495
0.000424744
0.000452269
0.000480121
0.000507839
0.000537141
0.000566512
0.000595779
0.000625977
0.000658541
0.000689978
0.00072165
0.000756797
0.000793665
0.000827228
0.000864209
0.000907264
0.000971862
0.00101428
0.00106498
0.00112149
0.00116618
0.00120595
0.0012689
0.00131592
0.00130821
0.00132278
0.00134749
0.00126544
0.000972177
0.000266448
-0.000281364
-0.000312357
-0.000393603
-0.000432488
-0.000383958
-0.000338396
-0.000408528
-0.000329764
-0.000297185
-0.000316461
-0.000339382
-0.000365597
-0.000673297
-0.00106623
-0.00117741
-0.00109409
-0.000972929
-0.000919779
-0.000882637
-0.000814147
-0.000744244
-0.000698401
-0.000657471
-0.000609175
-0.00056545
-0.000533038
-0.000503362
-0.000472936
-0.000446674
-0.000425782
-0.000405663
-0.000385878
-0.000368345
-0.000352709
-0.00033666
-0.000320824
-0.000305621
-0.000290658
-0.000274892
-0.000259118
-0.000243078
-0.000226742
-0.000209592
-0.000192312
-0.000174414
-0.000156179
-0.000137209
-0.000118086
-9.82681e-05
-7.8215e-05
-5.74988e-05
-3.66594e-05
-1.51497e-05
6.48858e-06
2.87423e-05
5.10728e-05
7.40335e-05
9.70419e-05
0.000120641
0.00014428
0.00016852
0.000192755
0.000217586
0.000242443
0.000267885
0.000293306
0.000319382
0.000345492
0.000372188
0.000398932
0.000426466
0.00045405
0.00048229
0.000510818
0.000540349
0.000569951
0.000600474
0.000631814
0.000664421
0.000697128
0.00073142
0.000767567
0.000805113
0.000842503
0.00088309
0.000927576
0.000991136
0.00104936
0.00109787
0.00114625
0.00121675
0.00128359
0.00132534
0.00137882
0.00145619
0.00146463
0.00141879
0.00153995
0.00114866
5.42937e-05
-0.00043839
-0.000398718
-0.000353312
-0.000323804
-0.00036538
-0.000418818
-0.00031926
-0.000309643
-0.000363224
-0.000317955
-0.000214179
-0.000208537
-0.000415601
-0.000886392
-0.0011086
-0.00103277
-0.000990449
-0.000941471
-0.00085773
-0.000795396
-0.000758454
-0.000704161
-0.000642432
-0.000602648
-0.000569981
-0.000528487
-0.000492363
-0.00046836
-0.000444141
-0.000417941
-0.000397388
-0.000381022
-0.000363025
-0.000345447
-0.000330565
-0.000316154
-0.000300421
-0.00028525
-0.000270576
-0.000255307
-0.000239137
-0.000223143
-0.000206672
-0.000189581
-0.000171806
-0.00015393
-0.000135325
-0.000116303
-9.66739e-05
-7.68572e-05
-5.63335e-05
-3.55605e-05
-1.42099e-05
7.30302e-06
2.94564e-05
5.17575e-05
7.46081e-05
9.7568e-05
0.000121138
0.000144787
0.000168952
0.000193217
0.000218102
0.000242983
0.00026839
0.000293985
0.00032019
0.000346287
0.000373098
0.000400275
0.0004279
0.000455454
0.000484291
0.000513521
0.000542836
0.000572795
0.000604967
0.000636813
0.000668739
0.000703568
0.000740905
0.000775969
0.000813469
0.000857686
0.000901418
0.000941168
0.00101042
0.00106506
0.00112429
0.00118424
0.00125134
0.00132731
0.00139166
0.00144997
0.00154287
0.00160006
0.00159109
0.00165086
0.000687271
-0.000276325
-0.000301345
-0.000361341
-0.000366071
-0.000357419
-0.000364256
-0.00035937
-0.000317011
-0.000333918
-0.000303419
-0.000271758
-0.000237114
-0.000240393
-0.000249843
-0.000629322
-0.00103953
-0.00101621
-0.000993029
-0.000920665
-0.000852491
-0.000804054
-0.000751306
-0.000694973
-0.000645983
-0.000602353
-0.000561341
-0.000524686
-0.000492073
-0.000462857
-0.000437261
-0.000414611
-0.000393706
-0.000374896
-0.000357867
-0.000341786
-0.00032612
-0.000311251
-0.000296598
-0.000281877
-0.000266882
-0.000251892
-0.000236398
-0.000220526
-0.000204097
-0.000187366
-0.000169942
-0.000152134
-0.000133696
-0.000114922
-9.5474e-05
-7.57211e-05
-5.53541e-05
-3.47165e-05
-1.3469e-05
8.00112e-06
3.00468e-05
5.22809e-05
7.50789e-05
9.80364e-05
0.000121534
0.00014516
0.00016934
0.000193636
0.000218454
0.000243391
0.000268911
0.000294515
0.000320676
0.000347028
0.000374013
0.000401084
0.000428882
0.000457037
0.000485871
0.000514945
0.000545173
0.000575943
0.000607501
0.00063991
0.000674136
0.000708991
0.000745254
0.000783681
0.000824411
0.000866174
0.000911237
0.000959577
0.00102422
0.00107399
0.00114218
0.00121724
0.00127654
0.00134374
0.0014428
0.00153729
0.00159643
0.001658
0.00178647
0.00150902
0.000295652
-0.000374326
-0.000260923
-0.000331003
-0.000384132
-0.000372883
-0.000326324
-0.000311813
-0.000356707
-0.000339528
-0.000259876
-0.00025808
-0.000269403
-0.00020974
-0.00016875
-0.000445354
-0.000916638
-0.00103936
-0.000953194
-0.000892085
-0.000867978
-0.000813083
-0.000735769
-0.000687137
-0.000653144
-0.000602373
-0.00055272
-0.000521739
-0.000493245
-0.000459254
-0.000431706
-0.000412276
-0.000391779
-0.000370745
-0.000353999
-0.000339365
-0.000323348
-0.000307842
-0.000293849
-0.000279661
-0.000264443
-0.000249485
-0.000234483
-0.000218787
-0.000202339
-0.000185801
-0.000168659
-0.00015092
-0.000132563
-0.000113951
-9.46507e-05
-7.49402e-05
-5.46662e-05
-3.4127e-05
-1.29571e-05
8.48745e-06
3.04606e-05
5.26468e-05
7.54094e-05
9.83617e-05
0.000121809
0.000145427
0.000169613
0.000193919
0.000218704
0.000243691
0.000269262
0.000294869
0.000321041
0.000347553
0.000374604
0.000401653
0.000429624
0.000458093
0.000486898
0.000516022
0.000546843
0.000577971
0.000609252
0.000642261
0.000677795
0.000712511
0.000748434
0.000789272
0.000831812
0.000871778
0.000918139
0.000973107
0.00102852
0.00109148
0.00115066
0.00121494
0.00129652
0.00137959
0.001456
0.00154333
0.00163666
0.00176546
0.00191334
0.00137681
0.000332277
-0.00034458
-0.000389408
-0.000342571
-0.000318977
-0.00034128
-0.000358436
-0.00034808
-0.000315372
-0.000289336
-0.000304782
-0.000269775
-0.00023115
-0.000197777
-0.000149448
-0.00039154
-0.000784961
-0.000989244
-0.000960881
-0.000920104
-0.000849946
-0.000790767
-0.000750141
-0.000697063
-0.000638756
-0.0005968
-0.000561389
-0.000520887
-0.000485166
-0.000459075
-0.000434119
-0.00040876
-0.000388033
-0.000370875
-0.000353288
-0.000336399
-0.000321603
-0.000307343
-0.000292368
-0.000277771
-0.000263466
-0.000248694
-0.000233226
-0.000217695
-0.000201681
-0.000185074
-0.000167827
-0.000150298
-0.000132096
-0.000113423
-9.41574e-05
-7.45748e-05
-5.43494e-05
-3.3787e-05
-1.26724e-05
8.70802e-06
3.06668e-05
5.2867e-05
7.55818e-05
9.84991e-05
0.000121963
0.000145602
0.000169726
0.000194031
0.000218892
0.000243869
0.000269347
0.000295067
0.000321364
0.000347727
0.00037475
0.00040217
0.000430125
0.000458226
0.000487448
0.000517183
0.000547342
0.000578256
0.000611078
0.000644136
0.000677887
0.000714182
0.000752868
0.000790923
0.000831871
0.000878353
0.000925688
0.000972476
0.00102852
0.00109148
0.00115066
0.00121494
0.00129652
0.00137959
0.001456
0.00154333
0.00163666
0.00176546
0.00191334
0.00137681
0.000332277
-0.00034458
-0.000389408
-0.000342571
-0.000318977
-0.00034128
-0.000358436
-0.00034808
-0.000315372
-0.000289336
-0.000304782
-0.000269775
-0.00023115
-0.000197777
-0.000149448
-0.00039154
-0.000784961
-0.000989244
-0.000960881
-0.000920104
-0.000849946
-0.000790767
-0.000750141
-0.000697063
-0.000638756
-0.0005968
-0.000561389
-0.000520887
-0.000485166
-0.000459075
-0.000434119
-0.00040876
-0.000388033
-0.000370875
-0.000353288
-0.000336399
-0.000321603
-0.000307343
-0.000292368
-0.000277771
-0.000263466
-0.000248694
-0.000233226
-0.000217695
-0.000201681
-0.000185074
-0.000167827
-0.000150298
-0.000132096
-0.000113423
-9.41574e-05
-7.45748e-05
-5.43494e-05
-3.3787e-05
-1.26724e-05
8.70802e-06
3.06668e-05
5.2867e-05
7.55818e-05
9.84991e-05
0.000121963
0.000145602
0.000169726
0.000194031
0.000218892
0.000243869
0.000269347
0.000295067
0.000321364
0.000347727
0.00037475
0.00040217
0.000430125
0.000458226
0.000487448
0.000517183
0.000547342
0.000578256
0.000611078
0.000644136
0.000677887
0.000714182
0.000752868
0.000790923
0.000831871
0.000878353
0.000925688
0.000972476
0.00102422
0.00107399
0.00114218
0.00121724
0.00127654
0.00134374
0.0014428
0.00153729
0.00159643
0.001658
0.00178647
0.00150902
0.000295652
-0.000374326
-0.000260923
-0.000331003
-0.000384132
-0.000372883
-0.000326324
-0.000311813
-0.000356707
-0.000339528
-0.000259876
-0.00025808
-0.000269403
-0.00020974
-0.00016875
-0.000445354
-0.000916638
-0.00103936
-0.000953194
-0.000892085
-0.000867978
-0.000813083
-0.000735769
-0.000687137
-0.000653144
-0.000602373
-0.00055272
-0.000521739
-0.000493245
-0.000459254
-0.000431706
-0.000412276
-0.000391779
-0.000370745
-0.000353999
-0.000339365
-0.000323348
-0.000307842
-0.000293849
-0.000279661
-0.000264443
-0.000249485
-0.000234483
-0.000218787
-0.000202339
-0.000185801
-0.000168659
-0.00015092
-0.000132563
-0.000113951
-9.46507e-05
-7.49402e-05
-5.46662e-05
-3.4127e-05
-1.29571e-05
8.48745e-06
3.04606e-05
5.26468e-05
7.54094e-05
9.83617e-05
0.000121809
0.000145427
0.000169613
0.000193919
0.000218704
0.000243691
0.000269262
0.000294869