# vtk DataFile Version 3.0
fluid_state
ASCII
DATASET RECTILINEAR_GRID
DIMENSIONS 100 40 1
X_COORDINATES 100 float
0.5 1.5 2.5 3.5 4.5 5.5 6.5 7.5 8.5 9.5 10.5 11.5 12.5 13.5 14.5 15.5 16.5 17.5 18.5 19.5 20.5 21.5 22.5 23.5 24.5 25.5 26.5 27.5 28.5 29.5 30.5 31.5 32.5 33.5 34.5 35.5 36.5 37.5 38.5 39.5 40.5 41.5 42.5 43.5 44.5 45.5 46.5 47.5 48.5 49.5 50.5 51.5 52.5 53.5 54.5 55.5 56.5 57.5 58.5 59.5 60.5 61.5 62.5 63.5 64.5 65.5 66.5 67.5 68.5 69.5 70.5 71.5 72.5 73.5 74.5 75.5 76.5 77.5 78.5 79.5 80.5 81.5 82.5 83.5 84.5 85.5 86.5 87.5 88.5 89.5 90.5 91.5 92.5 93.5 94.5 95.5 96.5 97.5 98.5 99.5 
Y_COORDINATES 40 float
0.5 1.5 2.5 3.5 4.5 5.5 6.5 7.5 8.5 9.5 10.5 11.5 12.5 13.5 14.5 15.5 16.5 17.5 18.5 19.5 20.5 21.5 22.5 23.5 24.5 25.5 26.5 27.5 28.5 29.5 30.5 31.5 32.5 33.5 34.5 35.5 36.5 37.5 38.5 39.5 
Z_COORDINATES 1 float
0
POINT_DATA 4000
SCALARS density_difference float 1
LOOKUP_TABLE default
-0.00446223
-0.0123064
-0.0186414
-0.0233726
-0.0265492
-0.0276715
-0.0264817
-0.0240282
-0.0206115
-0.0165798
-0.0130711
-0.0107534
-0.0104757
-0.0129668
-0.0183751
-0.0244394
-0.0317457
-0.0401258
-0.0443497
-0.0459404
-0.0458356
-0.0421415
-0.0365829
-0.0284977
-0.0187699
-0.00995584
-0.00161327
0.00684566
0.0144972
0.0199391
0.0237419
0.0272606
0.0295702
0.0304351
0.0309309
0.0310827
0.0306341
0.0295367
0.0280198
0.0263498
0.023938
0.0207297
0.0174033
0.0135585
0.00889363
0.00415159
-0.000590231
-0.00567131
-0.0105436
-0.0148677
-0.0189024
-0.0223815
-0.0249968
-0.0269369
-0.0282073
-0.0287107
-0.0286316
-0.0281268
-0.0272471
-0.0261426
-0.0249717
-0.023822
-0.0227957
-0.0220106
-0.02155
-0.0214666
-0.0217877
-0.022489
-0.0234679
-0.0245468
-0.0254809
-0.0259559
-0.0256277
-0.0242019
-0.0214877
-0.0174577
-0.0123116
-0.00642344
-0.000212272
0.005934
0.0117251
0.0170313
0.0218498
0.0262037
0.0301211
0.0336717
0.0369298
0.0399006
0.0425559
0.0448799
0.0467995
0.0480702
0.0483061
0.0471048
0.0440546
0.0388546
0.0316486
0.0231108
0.0139259
0.00452264
-0.00347701
-0.0111594
-0.0176759
-0.0227563
-0.0260145
-0.0269576
-0.0264141
-0.0247631
-0.0214127
-0.0178097
-0.0144699
-0.0119683
-0.0112132
-0.012993
-0.0174151
-0.0231165
-0.0314105
-0.038216
-0.0426984
-0.0469752
-0.045316
-0.0413286
-0.037124
-0.0289949
-0.0197338
-0.0109089
-0.00187484
0.00584139
0.0127749
0.0193637
0.0234615
0.0260976
0.0287096
0.0301141
0.0303864
0.0302838
0.029889
0.0290693
0.0274128
0.0253875
0.0232713
0.0202676
0.0165987
0.0129056
0.00870882
0.0039424
-0.000702816
-0.00525841
-0.0099071
-0.0141614
-0.0178427
-0.0211296
-0.0238
-0.0257056
-0.0270031
-0.0277039
-0.0277984
-0.0274394
-0.0267469
-0.0257963
-0.0247163
-0.0236353
-0.0226496
-0.0218589
-0.0213614
-0.0212268
-0.0214836
-0.0221079
-0.023007
-0.0240083
-0.0248579
-0.0252452
-0.0248521
-0.0233991
-0.020705
-0.0167745
-0.0118031
-0.0061037
-5.71906e-05
0.00596594
0.0117239
0.0171086
0.0220604
0.0265491
0.0306023
0.0342704
0.0375623
0.0404637
0.0429877
0.0451383
0.0468196
0.047832
0.0479388
0.0467764
0.043849
0.0389197
0.0322012
0.0240208
0.0147588
0.00526505
-0.00302818
-0.0111607
-0.0179356
-0.0229383
-0.0261076
-0.027663
-0.027892
-0.026206
-0.0231815
-0.0199351
-0.0161878
-0.0129818
-0.0112144
-0.0115404
-0.0144044
-0.0212811
-0.0299593
-0.036481
-0.0435491
-0.047443
-0.0465269
-0.044098
-0.0376571
-0.0298778
-0.0220814
-0.0126639
-0.00295208
0.0053713
0.0119149
0.0179851
0.0231767
0.02608
0.0279321
0.0293433
0.0299009
0.0297743
0.0289855
0.0280158
0.0267662
0.0245845
0.0220555
0.0194676
0.01602
0.0120345
0.00816124
0.00388909
-0.000719908
-0.00497964
-0.00904873
-0.0130523
-0.0165228
-0.0194487
-0.0220051
-0.0239628
-0.0252804
-0.0261194
-0.0264498
-0.0262856
-0.0257726
-0.0249928
-0.0240179
-0.0229761
-0.021984
-0.0211387
-0.0205484
-0.0203122
-0.0204853
-0.021063
-0.0219691
-0.023037
-0.0240055
-0.024558
-0.0243561
-0.0230934
-0.0205833
-0.0168234
-0.0119723
-0.00633768
-0.000301909
0.00580627
0.0117668
0.0174179
0.02266
0.027458
0.031797
0.035639
0.0389546
0.041766
0.0441219
0.0460277
0.0474544
0.0483244
0.0483913
0.0472557
0.0445365
0.0399485
0.0332989
0.0247783
0.0152737
0.00585131
-0.00409267
-0.0120999
-0.0186032
-0.0237724
-0.0273318
-0.0292413
-0.0291992
-0.0274928
-0.0255867
-0.0225608
-0.0183194
-0.0142
-0.0111224
-0.0101859
-0.0122583
-0.0187354
-0.0266854
-0.0369109
-0.0453108
-0.0468588
-0.0488011
-0.0467581
-0.0391408
-0.0321676
-0.0234688
-0.0137358
-0.00536742
0.00385032
0.0119513
0.0170108
0.0219636
0.0258576
0.0275934
0.0286331
0.029024
0.0289364
0.0282309
0.0267898
0.0253962
0.0236286
0.0209143
0.0180661
0.0151032
0.011338
0.00734246
0.00352306
-0.000563472
-0.00465596
-0.00828563
-0.0116643
-0.0148253
-0.0174781
-0.0197074
-0.0216087
-0.0230306
-0.0239737
-0.0245152
-0.0246254
-0.0243283
-0.0237186
-0.022878
-0.0218923
-0.020881
-0.0199692
-0.0192801
-0.0189296
-0.019011
-0.0195572
-0.0205086
-0.0217068
-0.0228997
-0.0237631
-0.0239285
-0.0230692
-0.0209656
-0.0175492
-0.0129241
-0.00737712
-0.00124485
0.0051603
0.0115591
0.0177261
0.0235313
0.0288594
0.033595
0.037662
0.0410528
0.0437976
0.0459266
0.0475102
0.0486755
0.0494179
0.0494462
0.0482934
0.0455118
0.0406854
0.033609
0.0247549
0.0150323
0.00520634
-0.00565063
-0.0134087
-0.0202332
-0.0254888
-0.0286226
-0.0301113
-0.0302112
-0.0295461
-0.0278408
-0.0241238
-0.0203587
-0.0164117
-0.012093
-0.00939453
-0.0108845
-0.0158432
-0.0243675
-0.0367963
-0.0443237
-0.0490044
-0.0509851
-0.0467771
-0.0423435
-0.0350733
-0.0249944
-0.015316
-0.00694745
0.00157609
0.0105474
0.016716
0.0210614
0.0247862
0.0268794
0.0280414
0.0281193
0.0274957
0.0269749
0.0256928
0.0236999
0.0219375
0.0197677
0.0167256
0.0136835
0.0105437
0.00675573
0.00296833
-0.000528606
-0.00410625
-0.00745357
-0.0102548
-0.0128175
-0.015155
-0.0170891
-0.0187742
-0.0202444
-0.0213421
-0.0220846
-0.0224788
-0.0224691
-0.022084
-0.0214138
-0.0205279
-0.0195343
-0.0185697
-0.0177877
-0.0173343
-0.017339
-0.0178685
-0.0188903
-0.0202603
-0.0217244
-0.0229397
-0.0235138
-0.0230974
-0.0214205
-0.0183786
-0.0140506
-0.00866696
-0.00249563
0.00414696
0.0109756
0.0177664
0.0243049
0.0303228
0.035617
0.0400725
0.043638
0.046314
0.0481788
0.0494299
0.0502596
0.0506401
0.05028
0.0487893
0.0456939
0.0404791
0.0329662
0.0236133
0.0133499
0.00331394
-0.00789888
-0.0159325
-0.0224627
-0.0268713
-0.0298518
-0.0314311
-0.0315692
-0.0307207
-0.0282049
-0.0252672
-0.0224561
-0.0178687
-0.0128991
-0.00952216
-0.00976642
-0.013934
-0.0242118
-0.034235
-0.0434184
-0.0534285
-0.0517418
-0.0481719
-0.0452542
-0.0358328
-0.0275961
-0.0184854
-0.00707845
0.000501988
0.00774232
0.0155531
0.0203167
0.0235964
0.0256662
0.026691
0.0270016
0.0261446
0.0249972
0.0239659
0.0221942
0.0199698
0.0180067
0.0155611
0.012464
0.00947548
0.00631791
0.00275356
-0.000588104
-0.00358423
-0.00646293
-0.0089321
-0.0109168
-0.0127204
-0.0143705
-0.0158054
-0.0171532
-0.0183661
-0.0193183
-0.0199555
-0.0202433
-0.0201298
-0.0196545
-0.0188913
-0.017952
-0.016963
-0.0161037
-0.0155571
-0.0154911
-0.0160062
-0.0171122
-0.0186872
-0.0204689
-0.0220956
-0.0231485
-0.0232287
-0.0220065
-0.0193428
-0.0152631
-0.00994528
-0.00366323
0.00324224
0.0105063
0.0178662
0.0250097
0.0316282
0.0374728
0.0423086
0.0460134
0.0486545
0.0504119
0.0515061
0.0520308
0.0518732
0.0508221
0.0486383
0.044834
0.0389189
0.0307877
0.0210031
0.0106929
0.000960893
-0.0111576
-0.0186914
-0.0244845
-0.0288871
-0.0318018
-0.0323664
-0.0317591
-0.0304833
-0.0284323
-0.0265161
-0.0223447
-0.0172609
-0.0141909
-0.011453
-0.00924993
-0.012891
-0.0235921
-0.0333529
-0.045531
-0.0526621
-0.0531341
-0.0537783
-0.0460099
-0.0368693
-0.0294072
-0.0211317
-0.00943184
-0.000350525
0.00616592
0.0134823
0.0183557
0.0220104
0.0243823
0.0247545
0.0249816
0.0246362
0.0230772
0.0215555
0.0203001
0.0182975
0.0160348
0.0140839
0.0116028
0.00861759
0.00577976
0.00280156
-0.00039118
-0.00317096
-0.00551976
-0.00761198
-0.00924308
-0.0105
-0.0117255
-0.0129066
-0.0140578
-0.0152387
-0.0163409
-0.0171957
-0.0177445
-0.0179013
-0.0176532
-0.0170421
-0.0161825
-0.015199
-0.0142887
-0.0136586
-0.0135266
-0.0140345
-0.0152271
-0.0169911
-0.0190628
-0.0210655
-0.0225528
-0.0230911
-0.0223231
-0.0200546
-0.0162344
-0.0110116
-0.00466383
0.00249036
0.0101487
0.0179496
0.0255504
0.0326523
0.0388887
0.0439555
0.0478216
0.0506465
0.0525593
0.0536324
0.0537416
0.0527461
0.0506142
0.0473214
0.0425781
0.0360272
0.0274986
0.0175681
0.00733631
-0.0023278
-0.0148731
-0.0220281
-0.0277283
-0.0314962
-0.0327122
-0.0326946
-0.0324752
-0.0304515
-0.0277256
-0.0246635
-0.0205885
-0.0180187
-0.0146257
-0.0107382
-0.00979943
-0.0142017
-0.0220472
-0.0359771
-0.0480157
-0.0505714
-0.0590352
-0.0571598
-0.0469067
-0.0427465
-0.0295807
-0.0201748
-0.0134427
-0.00278255
0.00514182
0.011237
0.0159715
0.0194602
0.0221868
0.0229196
0.0225939
0.0221879
0.0211836
0.0194205
0.0178461
0.0164739
0.0145361
0.0125175
0.0106383
0.00823403
0.00547267
0.00282694
6.81785e-05
-0.00263568
-0.00481181
-0.00649514
-0.00783245
-0.00874996
-0.00949492
-0.0103134
-0.0112349
-0.0122467
-0.0133419
-0.0143376
-0.0150849
-0.0154609
-0.0154328
-0.0149862
-0.0142192
-0.0132558
-0.0123097
-0.0115994
-0.0113899
-0.0118597
-0.0130863
-0.0149629
-0.0172388
-0.0195215
-0.0213583
-0.0223036
-0.0219762
-0.0201051
-0.0165947
-0.0115527
-0.00521373
0.00210978
0.0100056
0.0180625
0.0259202
0.0331909
0.0394429
0.044551
0.0486432
0.051861
0.0542025
0.0554375
0.0551235
0.0531923
0.0498864
0.0454654
0.0397959
0.0325023
0.0234184
0.0133068
0.00317874
-0.00633011
-0.0193691
-0.0261838
-0.0311837
-0.0337103
-0.0342872
-0.033983
-0.0318577
-0.0285979
-0.0262621
-0.0224887
-0.0192538
-0.0166087
-0.011308
-0.00953412
-0.0128315
-0.0165057
-0.0209013
-0.0374155
-0.0501035
-0.0582369
-0.0645628
-0.0568318
-0.0524473
-0.0478337
-0.0325258
-0.0204209
-0.0149204
-0.00487802
0.00247981
0.00814777
0.0139524
0.0167158
0.0187731
0.0205898
0.0205303
0.0194638
0.0187588
0.0175529
0.0157308
0.0143647
0.0131322
0.0113837
0.00962314
0.00788396
0.00553932
0.00293888
0.000468872
-0.00200293
-0.00422084
-0.00576536
-0.00680968
-0.00749018
-0.00788072
-0.00825805
-0.00884406
-0.00960227
-0.0105384
-0.0115231
-0.0123757
-0.0129079
-0.013058
-0.0127696
-0.0121156
-0.0111936
-0.0102256
-0.00943723
-0.0091217
-0.00947552
-0.0106127
-0.0124337
-0.0147087
-0.0170538
-0.0190666
-0.0203089
-0.0203897
-0.0189719
-0.0159109
-0.0112013
-0.00504204
0.00221984
0.0101056
0.0181981
0.0260041
0.0330303
0.0389949
0.0440319
0.048316
0.0519608
0.0547798
0.0562355
0.0557888
0.053431
0.0493802
0.0439384
0.0370999
0.028772
0.0191056
0.00880131
-0.00148572
-0.0110407
-0.0242019
-0.0307091
-0.0347327
-0.036353
-0.0363502
-0.034244
-0.0304067
-0.0275245
-0.0241309
-0.0189247
-0.0156643
-0.0122533
-0.0102163
-0.00931497
-0.00821522
-0.0146351
-0.0276725
-0.0405829
-0.0519773
-0.0675038
-0.06896
-0.0701419
-0.0612729
-0.0417494
-0.0377377
-0.0258504
-0.0151459
-0.00602573
-0.000133568
0.0050049
0.0109326
0.0141394
0.0158884
0.0174361
0.0181372
0.0174298
0.0163446
0.0153892
0.0141033
0.0126327
0.011487
0.010415
0.00893416
0.00735466
0.00557041
0.00323928
0.000731257
-0.00160062
-0.00376072
-0.00541234
-0.00635757
-0.00679376
-0.00693157
-0.00692035
-0.00705935
-0.00745485
-0.00811086
-0.00891641
-0.00973493
-0.0103347
-0.0106003
-0.0104385
-0.00989802
-0.00903395
-0.00805139
-0.00716151
-0.00666745
-0.00677693
-0.00764483
-0.00918847
-0.0112168
-0.0133902
-0.0153878
-0.0168038
-0.0172661
-0.0163683
-0.0138641
-0.00962962
-0.00386148
0.00308951
0.0107238
0.0185247
0.0258508
0.0323101
0.0378466
0.0426203
0.0467596
0.0504172
0.0533806
0.0552089
0.0553819
0.0535133
0.0493866
0.0432229
0.0352495
0.0257761
0.0151907
0.00419925
-0.00641203
-0.0159286
-0.0292803
-0.0351164
-0.0383314
-0.0392154
-0.0377678
-0.034175
-0.0301439
-0.0253501
-0.0190621
-0.0158301
-0.0128664
-0.00655659
-0.00565788
-0.00562629
-0.00492626
-0.0127548
-0.0283826
-0.0385451
-0.0549092
-0.0737482
-0.0834647
-0.0911008
-0.0632271
-0.03814
-0.0417341
-0.028919
-0.0160796
-0.00926369
-0.00152874
0.00355823
0.00711253
0.0110977
0.0139872
0.0146416
0.0153083
0.0156729
0.0145796
0.0133548
0.0124567
0.0112999
0.0100661
0.009219
0.008276
0.00685686
0.00526874
0.00333753
0.000876949
-0.00157009
-0.00370452
-0.00543665
-0.00647452
-0.0067612
-0.00663841
-0.00629587
-0.00597488
-0.00589589
-0.00615578
-0.00665817
-0.00729969
-0.00785015
-0.008159
-0.00808573
-0.00764347
-0.00684323
-0.0058469
-0.00482172
-0.00406592
-0.00379456
-0.00419547
-0.00522173
-0.00674858
-0.00851373
-0.0103036
-0.0117837
-0.0125963
-0.0122389
-0.0103483
-0.00671662
-0.00150128
0.00496874
0.0121089
0.0192741
0.0258799
0.0317427
0.0367953
0.0410062
0.0444302
0.0473274
0.0498728
0.0520778
0.0533041
0.052595
0.0492282
0.0431023
0.0344125
0.023744
0.0118952
-2.59855e-05
-0.0111408
-0.0210099
-0.0342871
-0.0396279
-0.0424462
-0.0421805
-0.0390033
-0.0344576
-0.0293517
-0.0225275
-0.0157656
-0.0112588
-0.00606271
-0.00272783
-0.000821002
0.000733372
-0.00397317
-0.00614033
-0.0187879
-0.0461576
-0.047188
-0.0415225
-0.0600357
-0.0589295
-0.0508227
-0.0569443
-0.0445461
-0.0244597
-0.0152695
-0.0129653
-0.00341846
0.00257851
0.00545031
0.00861146
0.0115298
0.0128316
0.0133178
0.0136584
0.0131444
0.0120239
0.0109029
0.00993737
0.00895985
0.007974
0.00720583
0.00623872
0.00470574
0.00286465
0.000630056
-0.00191094
-0.00423013
-0.00600385
-0.00711896
-0.00739931
-0.00703325
-0.0063399
-0.00558988
-0.00499388
-0.00475419
-0.00485392
-0.00520426
-0.00558931
-0.00585458
-0.00581793
-0.0054419
-0.0046864
-0.00365815
-0.00246705
-0.00138162
-0.000613157
-0.000382428
-0.000704782
-0.00154491
-0.00274329
-0.00419983
-0.00564971
-0.00672129
-0.00683026
-0.00551913
-0.0024885
0.00217681
0.00810793
0.0146015
0.0210209
0.0269545
0.0322632
0.0366948
0.0400317
0.0422495
0.043839
0.0455164
0.0475963
0.0493832
0.0497955
0.0477612
0.0425081
0.033772
0.0222281
0.00921532
-0.00377448
-0.015849
-0.0262789
-0.0392239
-0.0444407
-0.0463053
-0.0449741
-0.0416537
-0.0360609
-0.0279081
-0.0200435
-0.014049
-0.00573314
0.00106936
0.00026652
0.00537725
0.00929698
-6.93228e-05
-0.00990724
-0.0170052
-0.0345324
-0.0270315
-0.0150779
-0.0226168
-0.00747392
-0.0136923
-0.0405025
-0.0313294
-0.0194393
-0.0166512
-0.0125589
-0.00450513
0.000654871
0.00572672
0.00790846
0.00904258
0.0114052
0.0123118
0.0120003
0.0118269
0.0110698
0.00972112
0.00861761
0.00774409
0.00679166
0.00588567
0.00509859
0.00379759
0.00191402
-0.000283253
-0.00278917
-0.00529593
-0.00721174
-0.00834572
-0.00862049
-0.00807881
-0.00702633
-0.00583835
-0.00473679
-0.00395914
-0.00358383
-0.0035682
-0.00371098
-0.003852
-0.00378813
-0.00343665
-0.00269886
-0.00162183
-0.000260307
0.0011711
0.00248165
0.00342
0.00389128
0.00382488
0.00326877
0.00224079
0.000967563
-0.000169679
-0.000551153
0.000362084
0.00296617
0.00722402
0.0127226
0.0187306
0.0246411
0.0300056
0.0345777
0.0380892
0.0403489
0.041352
0.0417029
0.0422104
0.0432785
0.0445979
0.0453927
0.0443369
0.0400951
0.0319671
0.0203805
0.00669094
-0.00736955
-0.0203447
-0.031113
-0.0431543
-0.0481416
-0.0495083
-0.0480721
-0.0440914
-0.0372094
-0.0286627
-0.0196505
-0.010938
-0.0024151
0.00391125
0.00898282
0.0114833
0.00784361
0.00270237
-0.0183513
-0.0286007
-0.0237884
-0.0196112
-0.0113111
-0.0113541
-0.00462405
0.00317804
-0.00356132
-0.00523724
-0.0161583
-0.0258805
-0.0117389
-0.00216062
0.00191642
0.00572142
0.00779577
0.00858621
0.0102726
0.0111639
0.0112432
0.0109906
0.010064
0.0088108
0.00759333
0.00636596
0.00543841
0.00452526
0.00349412
0.00232571
0.000565417
-0.00178667
-0.00434047
-0.00688304
-0.00897829
-0.0101715
-0.0103596
-0.0096597
-0.0082978
-0.00666226
-0.00506817
-0.0037753
-0.00290775
-0.00248851
-0.00234999
-0.00231576
-0.00216906
-0.00179612
-0.00105278
7.289e-05
0.00157695
0.00330352
0.00509071
0.00667246
0.00788432
0.00856482
0.00867459
0.00818908
0.00731802
0.00644042
0.00617682
0.00709613
0.00962532
0.0137645
0.0191531
0.0250703
0.0307517
0.0355033
0.0390191
0.0412507
0.042293
0.0423118
0.0417616
0.0411204
0.0407848
0.0408328
0.0407812
0.0394869
0.035654
0.0282697
0.0172565
0.00363717
-0.0107441
-0.0239233
-0.0348284
-0.0447479
-0.049337
-0.0512281
-0.0499513
-0.0447029
-0.0376005
-0.0303451
-0.0198655
-0.00747011
5.61243e-05
0.00514111
0.0164412
0.0169645
0.00308408
-0.0171783
-0.0372438
-0.034841
-0.0282316
-0.0278649
-0.015838
-0.00651512
-0.00659377
-0.00348617
0.00162085
0.00862092
-0.00225306
-0.0156009
-0.00926887
0.00125565
0.0067582
0.00632897
0.00773754
0.00960448
0.00978651
0.0101826
0.0109359
0.0104495
0.00924008
0.00804594
0.00669748
0.00514554
0.0039011
0.00295155
0.00178918
0.00044372
-0.00127613
-0.0036683
-0.00637599
-0.00897639
-0.0111549
-0.0124281
-0.0125349
-0.0116419
-0.0100011
-0.00796137
-0.00590122
-0.00413292
-0.00281392
-0.0020071
-0.00158343
-0.0013615
-0.00111084
-0.000689136
6.63268e-05
0.00121268
0.00278881
0.00468675
0.00677162
0.00879086
0.0105534
0.0118638
0.0126457
0.0128611
0.012707
0.01255
0.0129681
0.0144704
0.017434
0.0218896
0.0275421
0.0336284
0.0391619
0.0432384
0.045547
0.0463124
0.0460333
0.0450997
0.0437725
0.0422452
0.0407676
0.0393317
0.0375989
0.0349782
0.0305462
0.0232505
0.0128369
0.000132728
-0.0133431
-0.0261038
-0.0369431
-0.043807
-0.048504
-0.0502084
-0.0484468
-0.0442416
-0.037596
-0.0280873
-0.0179056
-0.00720366
0.00357907
0.0115512
0.0179974
0.0204404
-0.00476809
-0.0437989
-0.0497916
-0.0445047
-0.033466
-0.0245282
-0.0211068
-0.01212
-0.00552217
-0.00346479
0.000938311
0.00778451
0.00959048
0.00624304
0.00517253
0.00792878
0.00938457
0.00846307
0.00912401
0.0101591
0.0098593
0.0101869
0.0105972
0.00991233
0.00889419
0.00743559
0.00570636
0.00414927
0.00251388
0.00117213
3.98168e-05
-0.00149675
-0.00342909
-0.00579306
-0.00860718
-0.0113706
-0.0135723
-0.0148657
-0.014946
-0.0138607
-0.011936
-0.00955749
-0.00709563
-0.00490243
-0.00319932
-0.00206698
-0.00139413
-0.00100357
-0.000660944
-0.00019683
0.000555067
0.00167461
0.00322157
0.00512357
0.0072721
0.00945574
0.0115081
0.0132692
0.0146891
0.0157539
0.0166479
0.017694
0.0193635
0.0220385
0.0259886
0.0311995
0.0373371
0.0435847
0.0488833
0.0522996
0.0535544
0.0530433
0.0515074
0.0494977
0.0472944
0.0450221
0.0426634
0.0399565
0.036618
0.0322923
0.0264341
0.0185826
0.0085807
-0.0030861
-0.0151844
-0.0267046
-0.0365924
-0.041018
-0.0455133
-0.0466714
-0.0450666
-0.0417873
-0.0346662
-0.0236139
-0.0145884
-0.00553459
0.00929797
0.0208675
0.0190022
0.0147549
-0.0284206
-0.0586521
-0.0488243
-0.0470887
-0.038898
-0.02578
-0.0213123
-0.0167526
-0.00734262
-0.000147865
0.00310798
0.00573233
0.011112
0.0134889
0.0163992
0.0123706
0.00982524
0.0115576
0.0114624
0.010397
0.0104076
0.0105232
0.0101733
0.00971635
0.00870892
0.00689206
0.00493259
0.00318296
0.00134366
-0.000377033
-0.00174892
-0.00335596
-0.00545532
-0.00795309
-0.0108286
-0.0137061
-0.0159779
-0.0172606
-0.0172987
-0.0160687
-0.0138953
-0.0112224
-0.00843433
-0.00589857
-0.00388678
-0.00250331
-0.00164962
-0.00113788
-0.000735111
-0.000258876
0.000455903
0.0014954
0.0029153
0.00467024
0.00667981
0.00879047
0.0108963
0.0129237
0.0148978
0.0168629
0.0189864
0.0215121
0.0247638
0.0289739
0.0342651
0.0404955
0.047218
0.0535898
0.0586048
0.0614431
0.0619329
0.0605508
0.0580589
0.0550667
0.0519616
0.0488619
0.0455973
0.0418609
0.0373282
0.0315442
0.0242287
0.0155201
0.00558106
-0.00523294
-0.0160753
-0.0260032
-0.0343504
-0.0373728
-0.0407598
-0.0420997
-0.041446
-0.0366075
-0.0289513
-0.0208812
-0.00979654
0.00340993
0.0135515
0.0242067
0.0303865
-0.00625461
-0.0516273
-0.0622153
-0.0559102
-0.0436234
-0.0387978
-0.0334037
-0.0220667
-0.0143899
-0.00919032
-0.00192453
0.00473627
0.00955964
0.0139852
0.0148419
0.0160297
0.0137569
0.0117763
0.0139305
0.0129645
0.0114371
0.0113022
0.0105411
0.0100447
0.00986111
0.00833288
0.00644522
0.00462609
0.00230502
0.000250273
-0.001498
-0.00326456
-0.00501899
-0.00713785
-0.00983946
-0.0128033
-0.0156981
-0.0180704
-0.0193706
-0.0193271
-0.0179906
-0.0156433
-0.0127234
-0.00967918
-0.00689894
-0.00466183
-0.00309766
-0.00213178
-0.00155562
-0.00113096
-0.000673419
-2.6179e-05
0.000896997
0.00213752
0.0036675
0.00543169
0.00733881
0.00935729
0.0115159
0.0139249
0.0166905
0.0199572
0.0238832
0.0286484
0.0343455
0.0409505
0.0481987
0.0555433
0.0621229
0.0669922
0.0694691
0.0695038
0.0676184
0.0645549
0.0609263
0.0571004
0.0531612
0.0490001
0.0443549
0.0387669
0.0318718
0.0236299
0.0141172
0.00381371
-0.00637382
-0.0159616
-0.0244486
-0.0315842
-0.0337533
-0.0365163
-0.0379115
-0.0371369
-0.03183
-0.0242619
-0.0167724
-0.00454829
0.0102076
0.0189277
0.0297754
0.0399641
-0.0124975
-0.0587205
-0.0642737
-0.0605305
-0.0455308
-0.0374443
-0.0347235
-0.0250958
-0.0145568
-0.0082929
-0.00207765
0.0053889
0.0115272
0.0153202
0.0181504
0.0170377
0.0153257
0.0148965
0.014585
0.0135651
0.0128607
0.0118073
0.0105892
0.0102438
0.00977868
0.00810714
0.00624025
0.00431201
0.00178952
-0.000516521
-0.00237957
-0.00427453
-0.0062119
-0.0084218
-0.0111912
-0.014246
-0.0171873
-0.019595
-0.0209162
-0.0208308
-0.019407
-0.016938
-0.0138556
-0.0106361
-0.00768964
-0.00530979
-0.00363754
-0.00260938
-0.00200898
-0.00159241
-0.00116823
-0.000592374
0.000216788
0.00128871
0.00260438
0.00412758
0.00582277
0.00772368
0.0099427
0.01265
0.015989
0.0200812
0.0250277
0.0309075
0.0377043
0.045275
0.0532732
0.061108
0.0679399
0.0728789
0.0753111
0.0752104
0.0731082
0.0697728
0.0658365
0.0616071
0.0571085
0.0522437
0.046782
0.0403408
0.0326848
0.0237735
0.0136825
0.00309918
-0.00683341
-0.0154899
-0.0227841
-0.0289541
-0.0313707
-0.0344719
-0.035308
-0.0333637
-0.0299007
-0.0225072
-0.0109924
-0.00147802
0.0089746
0.0264975
0.0370559
0.0441119
-0.00331395
-0.0668965
-0.0634247
-0.0528898
-0.0511651
-0.0425267
-0.0307783
-0.0247103
-0.0176818
-0.00806031
-0.000366156
0.00568942
0.0115555
0.0169904
0.0219923
0.0223467
0.0166024
0.015588
0.0155432
0.0146107
0.0135981
0.0117066
0.0108866
0.0104403
0.0094474
0.00824889
0.00625039
0.00383578
0.00164183
-0.00076299
-0.00298095
-0.00478692
-0.00678333
-0.00915022
-0.0118805
-0.0149852
-0.0180135
-0.0203936
-0.0217118
-0.0216418
-0.0201631
-0.0176151
-0.0144632
-0.0111595
-0.0081197
-0.00567128
-0.00395537
-0.00289906
-0.0022912
-0.00188947
-0.00149105
-0.00095974
-0.000219863
0.000751577
0.00193852
0.00331543
0.00488179
0.0067095
0.00895475
0.0118132
0.0154411
0.0199473
0.0254102
0.0318597
0.0392214
0.0472847
0.0556557
0.0637295
0.0707182
0.0757885
0.0783318
0.0782738
0.0761316
0.072699
0.0686326
0.0642537
0.0595561
0.0543134
0.0483026
0.0414147
0.0333943
0.0239837
0.0136009
0.00303553
-0.00693954
-0.0152401
-0.0217233
-0.0271095
-0.0313707
-0.0344719
-0.035308
-0.0333637
-0.0299007
-0.0225072
-0.0109924
-0.00147802
0.0089746
0.0264975
0.0370559
0.0441119
-0.00331395
-0.0668965
-0.0634247
-0.0528898
-0.0511651
-0.0425267
-0.0307783
-0.0247103
-0.0176818
-0.00806031
-0.000366156
0.00568942
0.0115555
0.0169904
0.0219923
0.0223467
0.0166024
0.015588
0.0155432
0.0146107
0.0135981
0.0117066
0.0108866
0.0104403
0.0094474
0.00824889
0.00625039
0.00383578
0.00164183
-0.00076299
-0.00298095
-0.00478692
-0.00678333
-0.00915022
-0.0118805
-0.0149852
-0.0180135
-0.0203936
-0.0217118
-0.0216418
-0.0201631
-0.0176151
-0.0144632
-0.0111595
-0.0081197
-0.00567128
-0.00395537
-0.00289906
-0.0022912
-0.00188947
-0.00149105
-0.00095974
-0.000219863
0.000751577
0.00193852
0.00331543
0.00488179
0.0067095
0.00895475
0.0118132
0.0154411
0.0199473
0.0254102
0.0318597
0.0392214
0.0472847
0.0556557
0.0637295
0.0707182
0.0757885
0.0783318
0.0782738
0.0761316
0.072699
0.0686326
0.0642537
0.0595561
0.0543134
0.0483026
0.0414147
0.0333943
0.0239837
0.0136009
0.00303553
-0.00693954
-0.0152401
-0.0217233
-0.0271095
-0.0337533
-0.0365163
-0.0379115
-0.0371369
-0.03183
-0.0242619
-0.0167724
-0.00454829
0.0102076
0.0189277
0.0297754
0.0399641
-0.0124975
-0.0587205
-0.0642737
-0.0605305
-0.0455308
-0.0374443
-0.0347235
-0.0250958
-0.0145568
-0.0082929
-0.00207765
0.0053889
0.0115272
0.0153202
0.0181504
0.0170377
0.0153257
0.0148965
0.014585
0.0135651
0.0128607
0.0118073
0.0105892
0.0102438
0.00977868
0.00810714
0.00624025
0.00431201
0.00178952
-0.000516521
-0.00237957
-0.00427453
-0.0062119
-0.0084218
-0.0111912
-0.014246
-0.0171873
-0.019595
-0.0209162
-0.0208308
-0.019407
-0.016938
-0.0138556
-0.0106361
-0.00768964
-0.00530979
-0.00363754
-0.00260938
-0.00200898
-0.00159241
-0.00116823
-0.000592374
0.000216788
0.00128871
0.00260438
0.00412758
0.00582277
0.00772368
0.0099427
0.01265
0.015989
0.0200812
0.0250277
0.0309075
0.0377043
0.045275
0.0532732
0.061108
0.0679399
0.0728789
0.0753111
0.0752104
0.0731082
0.0697728
0.0658365
0.0616071
0.0571085
0.0522437
0.046782
0.0403408
0.0326848
0.0237735
0.0136825
0.00309918
-0.00683341
-0.0154899
-0.0227841
-0.0289541
-0.0373728
-0.0407598
-0.0420997
-0.041446
-0.0366075
-0.0289513
-0.0208812
-0.00979654
0.00340993
0.0135515
0.0242067
0.0303865
-0.00625461
-0.0516273
-0.0622153
-0.0559102
-0.0436234
-0.0387978
-0.0334037
-0.0220667
-0.0143899
-0.00919032
-0.00192453
0.00473627
0.00955964
0.0139852
0.0148419
0.0160297
0.0137569
0.0117763
0.0139305
0.0129645
0.0114371
0.0113022
0.0105411
0.0100447
0.00986111
0.00833288
0.00644522
0.00462609
0.00230502
0.000250273
-0.001498
-0.00326456
-0.00501899
-0.00713785
-0.00983946
-0.0128033
-0.0156981
-0.0180704
-0.0193706
-0.0193271
-0.0179906
-0.0156433
-0.0127234
-0.00967918
-0.00689894
-0.00466183
-0.00309766
-0.00213178
-0.00155562
-0.00113096
-0.000673419
-2.6179e-05
0.000896997
0.00213752
0.0036675
0.00543169
0.00733881
0.00935729
0.0115159
0.0139249
0.0166905
0.0199572
0.0238832
0.0286484
0.0343455
0.0409505
0.0481987
0.0555433
0.0621229
0.0669922
0.0694691
0.0695038
0.0676184
0.0645549
0.0609263
0.0571004
0.0531612
0.0490001
0.0443549
0.0387669
0.0318718
0.0236299
0.0141172
0.00381371
-0.00637382
-0.0159616
-0.0244486
-0.0315842
-0.041018
-0.0455133
-0.0466714
-0.0450666
-0.0417873
-0.0346662
-0.0236139
-0.0145884
-0.00553459
0.00929797
0.0208675
0.0190022
0.0147549
-0.0284206
-0.0586521
-0.0488243
-0.0470887
-0.038898
-0.02578
-0.0213123
-0.0167526
-0.00734262
-0.000147865
0.00310798
0.00573233
0.011112
0.0134889
0.0163992
0.0123706
0.00982524
0.0115576
0.0114624
0.010397
0.0104076
0.0105232
0.0101733
0.00971635
0.00870892
0.00689206
0.00493259
0.00318296
0.00134366
-0.000377033
-0.00174892
-0.00335596
-0.00545532
-0.00795309
-0.0108286
-0.0137061
-0.0159779
-0.0172606
-0.0172987
-0.0160687
-0.0138953
-0.0112224
-0.00843433
-0.00589857
-0.00388678
-0.00250331
-0.00164962
-0.00113788
-0.000735111
-0.000258876
0.000455903
0.0014954
0.0029153
0.00467024
0.00667981
0.00879047
0.0108963
0.0129237
0.0148978
0.0168629
0.0189864
0.0215121
0.0247638
0.0289739
0.0342651
0.0404955
0.047218
0.0535898
0.0586048
0.0614431
0.0619329
0.0605508
0.0580589
0.0550667
0.0519616
0.0488619
0.0455973
0.0418609
0.0373282
0.0315442
0.0242287
0.0155201
0.00558106
-0.00523294
-0.0160753
-0.0260032
-0.0343504
-0.043807
-0.048504
-0.0502084
-0.0484468
-0.0442416
-0.037596
-0.0280873
-0.0179056
-0.00720366
0.00357907
0.0115512
0.0179974
0.0204404
-0.00476809
-0.0437989
-0.0497916
-0.0445047
-0.033466
-0.0245282
-0.0211068
-0.01212
-0.00552217
-0.00346479
0.000938311
0.00778451
0.00959048
0.00624304
0.00517253
0.00792878
0.00938457
0.00846307
0.00912401
0.0101591
0.0098593
0.0101869
0.0105972
0.00991233
0.00889419
0.00743559
0.00570636
0.00414927
0.00251388
0.00117213
3.98168e-05
-0.00149675
-0.00342909
-0.00579306
-0.00860718
-0.0113706
-0.0135723
-0.0148657
-0.014946
-0.0138607
-0.011936
-0.00955749
-0.00709563
-0.00490243
-0.00319932
-0.00206698
-0.00139413
-0.00100357
-0.000660944
-0.00019683
0.000555067
0.00167461
0.00322157
0.00512357
0.0072721
0.00945574