# vtk DataFile Version 3.0
fluid_state
ASCII
DATASET RECTILINEAR_GRID
DIMENSIONS 100 40 1
X_COORDINATES 100 float
0.5 1.5 2.5 3.5 4.5 5.5 6.5 7.5 8.5 9.5 10.5 11.5 12.5 13.5 14.5 15.5 16.5 17.5 18.5 19.5 20.5 21.5 22.5 23.5 24.5 25.5 26.5 27.5 28.5 29.5 30.5 31.5 32.5 33.5 34.5 35.5 36.5 37.5 38.5 39.5 40.5 41.5 42.5 43.5 44.5 45.5 46.5 47.5 48.5 49.5 50.5 51.5 52.5 53.5 54.5 55.5 56.5 57.5 58.5 59.5 60.5 61.5 62.5 63.5 64.5 65.5 66.5 67.5 68.5 69.5 70.5 71.5 72.5 73.5 74.5 75.5 76.5 77.5 78.5 79.5 80.5 81.5 82.5 83.5 84.5 85.5 86.5 87.5 88.5 89.5 90.5 91.5 92.5 93.5 94.5 95.5 96.5 97.5 98.5 99.5 
Y_COORDINATES 40 float
0.5 1.5 2.5 3.5 4.5 5.5 6.5 7.5 8.5 9.5 10.5 11.5 12.5 13.5 14.5 15.5 16.5 17.5 18.5 19.5 20.5 21.5 22.5 23.5 24.5 25.5 26.5 27.5 28.5 29.5 30.5 31.5 32.5 33.5 34.5 35.5 36.5 37.5 38.5 39.5 
Z_COORDINATES 1 float
0
POINT_DATA 4000
SCALARS density_difference float 1
LOOKUP_TABLE default
0.000754843
0.000762687
0.000769017
0.000773168
0.000772106
0.000763356
0.000746755
0.000728242
0.000700264
0.000651227
0.000599634
0.000543759
0.000458331
0.00036486
0.000272063
0.00015546
3.33722e-05
-8.50679e-05
-0.000215581
-0.000336771
-0.000444588
-0.000559438
-0.000651893
-0.000721154
-0.000793759
-0.000845345
-0.000872596
-0.00090149
-0.000916441
-0.00091284
-0.000909261
-0.000901333
-0.000882271
-0.000858681
-0.000836352
-0.000812358
-0.000782263
-0.000751147
-0.000723481
-0.000694357
-0.000661753
-0.000630908
-0.000602468
-0.000572492
-0.000541574
-0.000512781
-0.000484982
-0.000456272
-0.000427899
-0.000401052
-0.000374446
-0.000347554
-0.000321347
-0.000295992
-0.000270616
-0.000245332
-0.000220624
-0.000196296
-0.000171921
-0.000147766
-0.000123947
-0.00010026
-7.65605e-05
-5.30507e-05
-2.96727e-05
-6.33635e-06
1.7002e-05
4.02384e-05
6.34513e-05
8.66405e-05
0.000109864
0.000133054
0.000156237
0.000179409
0.000202675
0.000225901
0.00024908
0.000272315
0.000295675
0.000318866
0.000342
0.000365331
0.000388668
0.000411594
0.000434629
0.00045798
0.000480873
0.000503181
0.000526066
0.000548982
0.000570553
0.000591886
0.000614296
0.000635376
0.00065432
0.000674215
0.000694429
0.000710819
0.000725581
0.000741724
0.000745687
0.000753464
0.000759147
0.000761335
0.000757956
0.000744681
0.00072921
0.000712568
0.00067331
0.000621638
0.00058168
0.000516918
0.00042094
0.000338682
0.000251029
0.000128013
4.49797e-06
-0.000101973
-0.000222315
-0.000350524
-0.000452295
-0.00055068
-0.000646881
-0.000711247
-0.000772281
-0.000832266
-0.000854316
-0.000869926
-0.000896229
-0.000897649
-0.000882252
-0.00087506
-0.000866145
-0.000843353
-0.00081512
-0.000793557
-0.000770944
-0.000739682
-0.000708445
-0.000682717
-0.000654617
-0.000622623
-0.000592906
-0.000565962
-0.00053697
-0.000507139
-0.00047939
-0.000452702
-0.000424842
-0.000397432
-0.000371325
-0.000345537
-0.000319269
-0.00029376
-0.000268871
-0.000244076
-0.000219179
-0.000194932
-0.000170866
-0.00014688
-0.000122919
-9.93945e-05
-7.58237e-05
-5.23668e-05
-2.89256e-05
-5.7384e-06
1.75887e-05
4.07751e-05
6.40023e-05
8.7096e-05
0.000110351
0.000133443
0.000156642
0.000179776
0.000203036
0.000226114
0.000249375
0.000272581
0.00029581
0.000318869
0.000342204
0.000365374
0.000388409
0.000411387
0.000434681
0.000457478
0.000480029
0.000502784
0.000525621
0.000547357
0.000569014
0.000591119
0.000612404
0.000631938
0.000651994
0.000672024
0.000689493
0.000705096
0.000721416
0.000735554
0.000739734
0.000750182
0.000754035
0.000751161
0.000746977
0.000739161
0.000721949
0.000690844
0.000656244
0.000620807
0.000558822
0.000479528
0.00041468
0.000324328
0.000204584
0.00010357
-7.23729e-06
-0.000139897
-0.000252492
-0.000364797
-0.000481405
-0.000565779
-0.000649578
-0.000732608
-0.000776139
-0.000814329
-0.000857556
-0.000871445
-0.0008733
-0.0008805
-0.000877223
-0.000861539
-0.000843131
-0.000828014
-0.000807213
-0.000778684
-0.000752421
-0.000729431
-0.000700892
-0.00067005
-0.000642757
-0.000616226
-0.000586312
-0.000557114
-0.00053015
-0.00050292
-0.000474322
-0.0004472
-0.000421009
-0.000394523
-0.000367786
-0.00034232
-0.000317029
-0.000291712
-0.000266545
-0.000242218
-0.00021775
-0.000193485
-0.000169372
-0.000145752
-0.000121913
-9.83692e-05
-7.48424e-05
-5.16145e-05
-2.81663e-05
-5.00131e-06
1.82697e-05
4.13211e-05
6.45977e-05
8.76369e-05
0.000110839
0.000133854
0.000157119
0.000180161
0.000203365
0.000226423
0.000249748
0.000272785
0.000295976
0.000319104
0.000342424
0.000365301
0.000388421
0.000411548
0.000434562
0.000456991
0.000479946
0.000502726
0.000524761
0.000546378
0.000568894
0.000590296
0.000610219
0.000630589
0.000651545
0.000669243
0.000685555
0.000703443
0.000719326
0.000729496
0.000740558
0.000746647
0.000750017
0.000750672
0.000744818
0.000734527
0.000716904
0.00068471
0.00065304
0.000612888
0.000540816
0.000469239
0.000402775
0.000294704
0.000175842
7.35322e-05
-4.36719e-05
-0.000183181
-0.000306148
-0.000408279
-0.00052331
-0.000620681
-0.000688834
-0.000763046
-0.000812573
-0.000832595
-0.000867614
-0.000888577
-0.000876712
-0.00087309
-0.000873285
-0.000858514
-0.000833655
-0.000813182
-0.000795832
-0.000770716
-0.000740119
-0.000715107
-0.00069092
-0.000661808
-0.000631899
-0.00060589
-0.00057906
-0.000550236
-0.000522187
-0.000496269
-0.000469334
-0.000442079
-0.000415728
-0.000390444
-0.000364396
-0.000338771
-0.000313729
-0.000289216
-0.00026423
-0.000239877
-0.000215732
-0.000191896
-0.000167781
-0.000144249
-0.000120646
-9.72958e-05
-7.37443e-05
-5.06418e-05
-2.73129e-05
-4.24096e-06
1.90339e-05
4.19839e-05
6.52202e-05
8.8181e-05
0.000111385
0.000134347
0.000157585
0.000180532
0.000203782
0.000226816
0.000250055
0.000273017
0.000296347
0.000319384
0.000342519
0.000365466
0.000388789
0.000411578
0.000434413
0.000457235
0.000480208
0.000502246
0.000524499
0.000546838
0.000568609
0.000589091
0.000610276
0.000631037
0.000649882
0.000667629
0.000686412
0.000702703
0.000715778
0.000728638
0.000742721
0.000746675
0.000752828
0.00075617
0.000748506
0.0007334
0.000717184
0.00069501
0.000654457
0.000593425
0.00054127
0.000478917
0.000362577
0.000255975
0.000171335
2.30353e-05
-0.000124205
-0.000232652
-0.000370363
-0.000501633
-0.000594248
-0.000702359
-0.00077467
-0.000810552
-0.000870376
-0.000904795
-0.000893822
-0.000901187
-0.000909812
-0.000894245
-0.000868897
-0.000852844
-0.000839387
-0.000811587
-0.000780009
-0.000759539
-0.000736345
-0.000704721
-0.00067573
-0.000652385
-0.00062496
-0.000595069
-0.000568194
-0.000543207
-0.000515413
-0.000487964
-0.000462325
-0.000437054
-0.000410376
-0.000384866
-0.000360048
-0.00033526
-0.000309939
-0.000285726
-0.00026153
-0.000237461
-0.000213217
-0.000189774
-0.000166053
-0.000142606
-0.000119028
-9.59872e-05
-7.25856e-05
-4.95261e-05
-2.62665e-05
-3.39207e-06
1.98541e-05
4.27547e-05
6.59224e-05
8.87755e-05
0.000112004
0.000134895
0.000158082
0.000180997
0.000204285
0.00022721
0.000250437
0.000273443
0.000296771
0.000319651
0.000342883
0.000365932
0.000389115
0.000411758
0.000434912
0.000457772
0.000480363
0.000502488
0.00052536
0.00054736
0.000568555
0.000589813
0.000611718
0.000631279
0.000649903
0.000669618
0.000688379
0.000702473
0.000716902
0.000732558
0.000745601
0.000757482
0.000762881
0.000759106
0.000757294
0.000748855
0.000725783
0.000699581
0.000661144
0.00060162
0.000543969
0.000460103
0.000343371
0.000241504
0.000117371
-4.21248e-05
-0.00018956
-0.000326543
-0.000468423
-0.000618223
-0.000717738
-0.000803764
-0.000888526
-0.000924826
-0.000945871
-0.000978639
-0.000966382
-0.000945911
-0.000941665
-0.000921216
-0.000890955
-0.000861817
-0.000836743
-0.000812712
-0.000780743
-0.000749822
-0.000724362
-0.000697859
-0.00066727
-0.000639361
-0.000613551
-0.000586686
-0.000558408
-0.0005324
-0.000506796
-0.00048067
-0.00045426
-0.000429499
-0.00040442
-0.000379329
-0.000354336
-0.000330414
-0.000305955
-0.000281852
-0.000257826
-0.000234456
-0.000210576
-0.000187214
-0.000163752
-0.000140731
-0.000117281
-9.43493e-05
-7.11519e-05
-4.8317e-05
-2.51039e-05
-2.33686e-06
2.07928e-05
4.35697e-05
6.67209e-05
8.9502e-05
0.00011267
0.000135475
0.000158686
0.000181566
0.000204794
0.000227668
0.000250997
0.000273953
0.000297184
0.000320132
0.000343541
0.000366408
0.000389525
0.000412503
0.000435762
0.000458199
0.000481061
0.000503859
0.000526366
0.000547864
0.000570261
0.000592148
0.000612691
0.000632626
0.000653896
0.000672839
0.000689402
0.000706865
0.000724441
0.000735782
0.000757541
0.000770293
0.000773787
0.000773086
0.00077475
0.000766515
0.00074332
0.000710868
0.000674233
0.000627858
0.000540992
0.000428549
0.000354183
0.00022504
1.6846e-05
-0.000107474
-0.00024592
-0.000466372
-0.000617104
-0.000739458
-0.000881718
-0.000949498
-0.00101416
-0.00108663
-0.00106317
-0.00103864
-0.00106171
-0.00103526
-0.000979889
-0.000942865
-0.000923539
-0.000891059
-0.00084041
-0.000807706
-0.000785418
-0.000750217
-0.000712384
-0.000686628
-0.000660856
-0.00062928
-0.000599777
-0.000575671
-0.000549263
-0.000521389
-0.000495663
-0.000471891
-0.000446122
-0.00042077
-0.00039662
-0.000373034
-0.000348231
-0.000324393
-0.000300891
-0.000277588
-0.000253644
-0.000230613
-0.000207399
-0.000184411
-0.00016104
-0.000138367
-0.000115289
-9.25264e-05
-6.9434e-05
-4.68583e-05
-2.38132e-05
-1.13693e-06
2.18961e-05
4.45189e-05
6.76175e-05
9.0329e-05
0.000113428
0.000136175
0.000159386
0.000182191
0.000205406
0.000228307
0.000251631
0.000274512
0.000297838
0.00032087
0.000344212
0.000367074
0.000390468
0.000413496
0.000436613
0.000459303
0.000482642
0.000505291
0.00052774
0.00055005
0.000572954
0.000594354
0.000615447
0.000637002
0.000658302
0.000676647
0.000695375
0.000714946
0.000731312
0.000743226
0.000774905
0.000780689
0.000791028
0.000802941
0.000795721
0.000780382
0.000774709
0.000746093
0.000690623
0.000637801
0.000557614
0.000446555
0.000328866
0.000159732
-8.33916e-06
-0.000178942
-0.000395117
-0.000585567
-0.000768389
-0.00090912
-0.0010623
-0.00115726
-0.0011737
-0.00119941
-0.00122079
-0.00117236
-0.00113652
-0.00109592
-0.00104583
-0.00100238
-0.000945703
-0.000902346
-0.000865641
-0.000819763
-0.000777788
-0.000746455
-0.00071325
-0.000677798
-0.00064665
-0.000619741
-0.000590674
-0.000562055
-0.000536035
-0.000511303
-0.000484969
-0.000460007
-0.000436111
-0.000412366
-0.00038777
-0.000364551
-0.000341354
-0.000318183
-0.000294644
-0.000272113
-0.000249128
-0.000226369
-0.000203371
-0.00018103
-0.000158131
-0.000135615
-0.000112801
-9.04467e-05
-6.75644e-05
-4.5111e-05
-2.22698e-05
1.839e-07
2.31265e-05
4.56623e-05
6.86349e-05
9.12306e-05
0.000114309
0.000137011
0.000160143
0.000182903
0.000206171
0.000229048
0.00025231
0.00027525
0.000298711
0.000321673
0.000345007
0.00036814
0.000391681
0.000414525
0.000437897
0.000461169
0.000484435
0.000506892
0.000530321
0.00055338
0.000575629
0.000597487
0.000620865
0.000642512
0.000662537
0.000683737
0.000705924
0.000723025
0.000739225
0.00075914
0.000790383
0.000803627
0.00081883
0.000826032
0.000823111
0.00081907
0.000808279
0.000777577
0.000729942
0.000659257
0.000580154
0.000484704
0.00028836
9.67886e-05
9.4246e-07
-0.000278198
-0.000563836
-0.000686614
-0.000925304
-0.0011355
-0.00122595
-0.00135364
-0.00139413
-0.00131252
-0.00134047
-0.00133347
-0.00121742
-0.00114831
-0.00110826
-0.00106035
-0.000982191
-0.000915521
-0.000880283
-0.000836258
-0.00078066
-0.000740877
-0.000709745
-0.000672841
-0.000635874
-0.000607358
-0.000579826
-0.000550222
-0.000522406
-0.000498502
-0.000473583
-0.00044833
-0.000424433
-0.00040213
-0.000378581
-0.000355464
-0.00033294
-0.000310994
-0.000288089
-0.000265855
-0.000243618
-0.000221647
-0.000199016
-0.000177022
-0.000154689
-0.000132604
-0.000110022
-8.79645e-05
-6.54271e-05
-4.31924e-05
-2.05118e-05
1.74032e-06
2.45092e-05
4.69297e-05
6.97953e-05
9.22935e-05
0.000115302
0.000137931
0.000161023
0.000183783
0.00020702
0.000229855
0.000253187
0.000276195
0.000299613
0.000322629
0.000346199
0.000369391
0.00039289
0.000416061
0.000439831
0.000463037
0.000486475
0.000509774
0.000533579
0.000556456
0.00057965
0.000602965
0.000626301
0.000648186
0.000670807
0.000693575
0.000714998
0.000734416
0.00075545
0.000775257
0.000811095
0.000836174
0.000847836
0.00084932
0.000866194
0.00087298
0.000839678
0.000812294
0.000796458
0.000713395
0.000595021
0.000490859
0.000325186
0.000115649
-0.000134939
-0.000384309
-0.000533911
-0.000824803
-0.00111725
-0.00133983
-0.0014088
-0.00148141
-0.00157096
-0.00155234
-0.00142769
-0.00136761
-0.00130533
-0.00126178
-0.00116602
-0.00106311
-0.00101962
-0.000962567
-0.000884976
-0.000832835
-0.000794455
-0.000746334
-0.000698684
-0.000664321
-0.000631915
-0.000596286
-0.000564492
-0.000538632
-0.00051136
-0.000483988
-0.000459647
-0.000437158
-0.000412979
-0.000389871
-0.000368082
-0.000346503
-0.000323857
-0.000302343
-0.000280919
-0.00025942
-0.000237343
-0.000216078
-0.000194358
-0.000172719
-0.000150677
-0.00012916
-0.000107059
-8.52012e-05
-6.29413e-05
-4.10596e-05
-1.86138e-05
3.51396e-06
2.60815e-05
4.83154e-05
7.10795e-05
9.35099e-05
0.000116393
0.000138949
0.00016203
0.000184765
0.000207934
0.000230803
0.000254208
0.000277204
0.000300628
0.000323841
0.000347541
0.000370704
0.000394409
0.000418021
0.000441873
0.000465109
0.000489256
0.000513229
0.000536895
0.000560264
0.000585134
0.000609013
0.00063196
0.000655912
0.000681459
0.000703681
0.00072535
0.000750613
0.000774599
0.000791011
0.000840563
0.000860997
0.00087914
0.00089814
0.000910502
0.000907854
0.000902498
0.000887909
0.00083765
0.000768155
0.000673037
0.00051027
0.00036684
0.000174035
-0.000254845
-0.000443858
-0.000506179
-0.000910036
-0.00113791
-0.00140815
-0.00169871
-0.0017281
-0.00161025
-0.0016592
-0.00152734
-0.00142843
-0.00140567
-0.00130778
-0.00120481
-0.00110358
-0.0010369
-0.000977914
-0.000903646
-0.000842443
-0.000794971
-0.000745979
-0.000697649
-0.000657808
-0.000622083
-0.000586785
-0.000553528
-0.000525063
-0.000498152
-0.000471641
-0.000446334
-0.000423642
-0.000401041
-0.000378611
-0.000356707
-0.000336038
-0.00031478
-0.000293728
-0.000272736
-0.000252253
-0.000231056
-0.000210156
-0.000189006
-0.000168095
-0.000146553
-0.000125342
-0.000103711
-8.22764e-05
-6.03047e-05
-3.8654e-05
-1.6513e-05
5.39468e-06
2.77885e-05
4.98854e-05
7.24839e-05
9.48031e-05
0.000117598
0.000140116
0.000163114
0.000185803
0.00020899
0.000231904
0.000255252
0.000278301
0.000301898
0.000325174
0.000348844
0.000372308
0.000396343
0.000419932
0.00044397
0.000467982
0.000492447
0.00051632
0.000540932
0.000565647
0.00059043
0.000614688
0.000640221
0.000665569
0.000690403
0.000715247
0.000741693
0.000766749
0.000790678
0.000815371
0.00086989
0.000889094
0.000919019
0.00095012
0.000954515
0.000956942
0.000984578
0.000966053
0.000885952
0.000847814
0.000788559
0.000581718
0.000374762
0.000217056
-6.00919e-05
-0.000440887
-0.000848008
-0.000808111
-0.000944491
-0.0012905
-0.00132323
-0.00163057
-0.00172817
-0.00150923
-0.0015911
-0.00159839
-0.00149986
-0.00127991
-0.00120809
-0.00117519
-0.00105473
-0.000963147
-0.00092093
-0.000862403
-0.000790476
-0.000740261
-0.000701143
-0.000654142
-0.000609538
-0.000577169
-0.000545988
-0.000512291
-0.000483313
-0.000459776
-0.000434791
-0.000409877
-0.000388033
-0.000367726
-0.000345903
-0.00032493
-0.00030508
-0.000285283
-0.0002645
-0.000244491
-0.000224451
-0.000204227
-0.000183398
-0.000163071
-0.000142267
-0.000121419
-0.000100116
-7.91234e-05
-5.75655e-05
-3.61188e-05
-1.4241e-05
7.40056e-06
2.95816e-05
5.15667e-05
7.39864e-05
9.61808e-05
0.000118887
0.000141356
0.000164255
0.000186935
0.000210124
0.000233032
0.00025637
0.00027954
0.000303206
0.00032652
0.000350339
0.000374089
0.00039823
0.000421973
0.000446481
0.000470962
0.000495549
0.000519939
0.0005456
0.000570897
0.000595918
0.00062165
0.000649095
0.000674904
0.000700578
0.000729046
0.0007583
0.000783148
0.000810266
0.000842811
0.000896614
0.000931875
0.000961635
0.00098551
0.00101581
0.00104096
0.00103816
0.00102697
0.00102753
0.000961122
0.000816134
0.000713465
0.000542551
0.000251328
0.000190526
-0.000312116
-0.00110543
-0.000492881
-0.000438752
-0.00101549
-0.000526664
-0.000963313
-0.00118712
-0.000998863
-0.00156307
-0.00167799
-0.00143185
-0.0013484
-0.0012408
-0.00114747
-0.00106511
-0.000993282
-0.000924009
-0.000854905
-0.000796962
-0.000745253
-0.000693765
-0.000647499
-0.0006064
-0.000567997
-0.000533235
-0.000502552
-0.000473157
-0.00044607
-0.000421831
-0.000399058
-0.000376337
-0.000355313
-0.000335266
-0.00031537
-0.000295265
-0.000276072
-0.000256709
-0.000237225
-0.000217443
-0.000198034
-0.000178066
-0.000158058
-0.000137678
-0.000117435
-9.66057e-05
-7.58478e-05
-5.46602e-05
-3.35689e-05
-1.19548e-05
9.52617e-06
3.14588e-05
5.32601e-05
7.55355e-05
9.76546e-05
0.000120216
0.000142604
0.000165462
0.000188151
0.000211252
0.000234175
0.000257607
0.000280829
0.000304443
0.000327966
0.000352032
0.000375788
0.00040003
0.000424373
0.000449166
0.000473569
0.000498839
0.000524365
0.000549996
0.000575502
0.00060262
0.000629665
0.000656405
0.000684201
0.000714156
0.000742697
0.000771399
0.000803217
0.000835834
0.00086491
0.000927149
0.000970531
0.00100417
0.00103221
0.00107761
0.00111468
0.00111162
0.00112243
0.0011521
0.00106954
0.000929909
0.000881879
0.000733501
0.000403398
0.000136148
-0.000229542
-0.000578321
-0.00038676
-0.000269825
-0.000431369
-0.00046494
-0.000587358
-0.000470203
-0.000545792
-0.00105375
-0.00133657
-0.00135172
-0.00141758
-0.00127106
-0.00111314
-0.00107306
-0.00101124
-0.000916301
-0.000851736
-0.000806287
-0.000746084
-0.000685114
-0.000642416
-0.000604111
-0.000560315
-0.00052169
-0.000492809
-0.000464288
-0.000434679
-0.000409493
-0.000388253
-0.000366078
-0.000344268
-0.000324701
-0.00030608
-0.00028645
-0.000267364
-0.00024887
-0.000230274
-0.000210927
-0.000191933
-0.000172721
-0.000153263
-0.000133257
-0.000113428
-9.31146e-05
-7.26754e-05
-5.17848e-05
-3.09903e-05
-9.68525e-06
1.16189e-05
3.33389e-05
5.49718e-05
7.70832e-05
9.91129e-05
0.000121544
0.000143878
0.000166669
0.000189328
0.000212389
0.000235365
0.000258795
0.000282053
0.00030576
0.00032944
0.000353553
0.000377486
0.000402028
0.000426618
0.000451566
0.000476466
0.000502317
0.00052818
0.000554303
0.000580917
0.000608942
0.000636576
0.000664634
0.000694502
0.000725896
0.000755743
0.000787256
0.000822927
0.000858234
0.000889671
0.000960597
0.000997444
0.00104555
0.00109625
0.0011312
0.00116768
0.00122118
0.00124089
0.00120654
0.00121495
0.00122813
0.000998422
0.000738252
0.00049507
5.49107e-06
-0.000232154
-0.000340467
-0.000502808
-0.000544102
-0.000349014
-0.000463576
-0.00040454
-0.000354363
-0.00039257
-0.000564803
-0.000832889
-0.00119333
-0.00128675
-0.00121256
-0.00116501
-0.00107973
-0.000982318
-0.000919935
-0.000866015
-0.000796886
-0.000737583
-0.000691086
-0.000640428
-0.000591383
-0.000553822
-0.000518875
-0.000482584
-0.000451888
-0.000426805
-0.000401238
-0.000376605
-0.000355594
-0.000336035
-0.000315658
-0.000296415
-0.000278388
-0.000260229
-0.000241477
-0.000223346
-0.000205136
-0.000186534
-0.000167492
-0.000148644
-0.00012929
-0.000109683
-8.96754e-05
-6.96768e-05
-4.91379e-05
-2.84999e-05
-7.46298e-06
1.35869e-05
3.51158e-05
5.66523e-05
7.85819e-05
0.000100485
0.000122828
0.000145134
0.000167812
0.000190438
0.000213519
0.000236521
0.000259878
0.000283237
0.000307094
0.000330795
0.00035492
0.000379227
0.000404
0.000428538
0.000453845
0.000479555
0.000505474
0.000531369
0.000558829
0.000586555
0.000614086
0.000642788
0.000673991
0.000704279
0.000734782
0.000769273
0.000805717
0.000838987
0.000875921
0.000919797
0.000987842
0.00103184
0.00108474
0.00114428
0.00119159
0.00123411
0.00130093
0.00135036
0.00134147
0.0013557
0.00137486
0.00127783
0.000967089
0.000238624
-0.000320277
-0.000347186
-0.000435644
-0.0004796
-0.000430359
-0.000384486
-0.000458373
-0.00037605
-0.000344763
-0.000365183
-0.000388367
-0.000417492
-0.000732493
-0.00113359
-0.00124698
-0.00115863
-0.00103145
-0.00097593
-0.000935959
-0.0008626
-0.000787485
-0.000736694
-0.000690353
-0.000635966
-0.000586104
-0.000547704
-0.000512129
-0.000475827
-0.000444025
-0.000417934
-0.00039298
-0.000368614
-0.000346946
-0.000327502
-0.000308017
-0.000288989
-0.00027098
-0.000253428
-0.000235384
-0.000217499
-0.000199654
-0.000181642
-0.00016308
-0.000144497
-0.000125553
-0.000106356
-8.6666e-05
-6.68998e-05
-4.66774e-05
-2.62828e-05
-5.4593e-06
1.54279e-05
3.67551e-05
5.816e-05
7.99524e-05
0.000101776
0.000124009
0.000146252
0.000168869
0.000191499
0.000214524
0.000237526
0.000260929
0.000284359
0.000308191
0.000332016
0.000356334
0.000380727
0.00040556
0.000430505
0.000456128
0.000481896
0.00050823
0.000534989
0.000562714
0.000590679
0.000619561
0.000649505
0.000680777
0.000712422
0.000745772
0.000781375
0.000818569
0.00085599
0.000896901
0.000942341
0.00100928
0.00107019
0.00112117
0.00117235
0.00124721
0.00131888
0.00136386
0.00142107
0.00150325
0.00151032
0.00145647
0.00158229
0.0011804
3.91573e-05
-0.000477321
-0.000435641
-0.000393696
-0.000364961
-0.000408476
-0.000468279
-0.00036507
-0.000354177
-0.000412779
-0.000365905
-0.000257429
-0.00025458
-0.000465589
-0.000942342
-0.00116899
-0.00109202
-0.00104759
-0.000996534
-0.000908837
-0.000842285
-0.000801638
-0.000742352
-0.00067457
-0.00062906
-0.000590725
-0.00054296
-0.000500665
-0.000470978
-0.000441254
-0.000409617
-0.000384132
-0.000363254
-0.000341049
-0.000319545
-0.000301212
-0.000283634
-0.000265042
-0.000247259
-0.000230323
-0.000212965
-0.000194976
-0.000177328
-0.000159468
-0.0001411
-0.000122286
-0.000103481
-8.41765e-05
-6.45379e-05
-4.4516e-05
-2.43876e-05
-3.76957e-06
1.7029e-05
3.81888e-05
5.94455e-05
8.11313e-05
0.00010291
0.000125029
0.000147207
0.000169795
0.000192425
0.000215375
0.000238396
0.000261861
0.000285308
0.000309106
0.000333105
0.000357569
0.000381942
0.000406898
0.000432294
0.00045803
0.000483759
0.000510724
0.000538237
0.000565759
0.000594088
0.000624726
0.000655251
0.000685832
0.000719704
0.00075634
0.000790895
0.000828062
0.000872723
0.000917149
0.000957741
0.00103066
0.00108788
0.00115032
0.00121414
0.00128582
0.00136734
0.00143676
0.00150022
0.00159925
0.00165785
0.00164674
0.00171042
0.000705955
-0.000301463
-0.000328976
-0.000396525
-0.000405629
-0.000398261
-0.000408181
-0.000404051
-0.000361166
-0.000380775
-0.000348978
-0.00031725
-0.000282418
-0.000285106
-0.000295873
-0.000678734
-0.00109328
-0.0010718
-0.00104859
-0.000973109
-0.000902081
-0.000850717
-0.000793735
-0.000732304
-0.00067802
-0.000628684
-0.000581635
-0.000538913
-0.000500325
-0.00046521
-0.000433996
-0.000406028
-0.000380145
-0.000356685
-0.000335433
-0.000315455
-0.000296269
-0.000278189
-0.000260685
-0.000243358
-0.000226071
-0.000208998
-0.000191699
-0.000174184
-0.000156364
-0.00013838
-0.000119931
-0.000101212
-8.20823e-05
-6.27157e-05
-4.28854e-05
-2.28395e-05
-2.38586e-06
1.82574e-05
3.93074e-05
6.05064e-05
8.20806e-05
0.000103777
0.00012584
0.000148007
0.000170521
0.000193117
0.000216084
0.000239133
0.00026253
0.000286026
0.000309948
0.000333954
0.000358371
0.000383006
0.000408156
0.000433437
0.000459353
0.00048572
0.000512702
0.000540039
0.000568527
0.000597741
0.000627753
0.000658853
0.000691899
0.000725861
0.00076137
0.000799485
0.000840179
0.000882329
0.000928173
0.000977965
0.00104594
0.00109816
0.0011701
0.00125006
0.00131398
0.00138657
0.00149286
0.00159502
0.00165962
0.00172457
0.00185883
0.0015697
0.000298359
-0.000403123
-0.000283753
-0.000364476
-0.000423386
-0.000413363
-0.000367906
-0.000353684
-0.000402203
-0.000386186
-0.000302938
-0.00030275
-0.000316081
-0.000252689
-0.000211912
-0.000492045
-0.00096777
-0.00109309
-0.00100545
-0.000942313
-0.000917265
-0.00085949
-0.000777213
-0.000723867
-0.000685235
-0.000628589
-0.000572621
-0.000535798
-0.000501493
-0.000461434
-0.000428181
-0.00040353
-0.000378045
-0.000352258
-0.000331267
-0.000312765
-0.000293189
-0.000274429
-0.000257588
-0.000240803
-0.000223268
-0.000206225
-0.000189426
-0.000172097
-0.000154252
-0.000136473
-0.000118315
-9.96778e-05
-8.0631e-05
-6.14428e-05
-4.17675e-05
-2.17757e-05
-1.41943e-06
1.9112e-05
4.008e-05
6.12435e-05
8.27424e-05
0.00010438
0.000126407
0.000148561
0.000171024
0.000193605
0.00021658
0.000239634
0.000262998
0.00028654
0.00031052
0.000334525
0.000358954
0.000383752
0.00040898
0.000434235
0.000460332
0.000487031
0.000513995
0.00054138
0.000570495
0.000600103
0.000629839
0.000661562
0.000696011
0.000729869
0.000765034
0.000805689
0.00084837
0.00088871
0.000935929
0.000992759
0.00105075
0.00111697
0.00117969
0.00124836
0.00133561
0.00142526
0.00150846
0.00160294
0.00170312
0.00184153
0.00199869
0.00143632
0.000342193
-0.000367765
-0.000421699
-0.000375377
-0.000353141
-0.000380782
-0.000400302
-0.000391737
-0.000358995
-0.000332524
-0.000350717
-0.000314522
-0.000274797
-0.000242209
-0.000192031
-0.000436301
-0.000832749
-0.0010386
-0.0010118
-0.000971235
-0.000898286
-0.000835713
-0.000791833
-0.000734154
-0.000670171
-0.000622641
-0.000581585
-0.000534909
-0.000493058
-0.000461212
-0.000430666
-0.000399845
-0.000374103
-0.000352335
-0.000330458
-0.000309602
-0.000291279
-0.000273805
-0.000255934
-0.000238717
-0.000222121
-0.000205269
-0.000187982
-0.000170823
-0.000153426
-0.000135579
-0.000117312
-9.88937e-05
-8.00099e-05
-6.07635e-05
-4.11236e-05
-2.1269e-05
-9.64806e-07
1.95857e-05
4.04971e-05
6.15891e-05
8.3072e-05
0.000104721
0.000126699
0.000148812
0.000171292
0.000193892
0.000216804
0.000239852
0.000263297
0.000286829
0.00031071
0.000334829
0.000359397
0.000384039
0.000409229
0.000434874
0.000460969
0.000487274
0.000514666
0.000542711
0.000571146
0.000600502
0.000631866
0.000663688
0.000696252
0.000731735
0.000769869
0.000807656
0.000848606
0.000895804
0.000944199
0.000992459
0.00105075
0.00111697
0.00117969
0.00124836
0.00133561
0.00142526
0.00150846
0.00160294
0.00170312
0.00184153
0.00199869
0.00143632
0.000342193
-0.000367765
-0.000421699
-0.000375377
-0.000353141
-0.000380782
-0.000400302
-0.000391737
-0.000358995
-0.000332524
-0.000350717
-0.000314522
-0.000274797
-0.000242209
-0.000192031
-0.000436301
-0.000832749
-0.0010386
-0.0010118
-0.000971235
-0.000898286
-0.000835713
-0.000791833
-0.000734154
-0.000670171
-0.000622641
-0.000581585
-0.000534909
-0.000493058
-0.000461212
-0.000430666
-0.000399845
-0.000374103
-0.000352335
-0.000330458
-0.000309602
-0.000291279
-0.000273805
-0.000255934
-0.000238717
-0.000222121
-0.000205269
-0.000187982
-0.000170823
-0.000153426
-0.000135579
-0.000117312
-9.88937e-05
-8.00099e-05
-6.07635e-05
-4.11236e-05
-2.1269e-05
-9.64806e-07
1.95857e-05
4.04971e-05
6.15891e-05
8.3072e-05
0.000104721
0.000126699
0.000148812
0.000171292
0.000193892
0.000216804
0.000239852
0.000263297
0.000286829
0.00031071
0.000334829
0.000359397
0.000384039
0.000409229
0.000434874
0.000460969
0.000487274
0.000514666
0.000542711
0.000571146
0.000600502
0.000631866
0.000663688
0.000696252
0.000731735
0.000769869
0.000807656
0.000848606
0.000895804
0.000944199
0.000992459
0.00104594
0.00109816
0.0011701
0.00125006
0.00131398
0.00138657
0.00149286
0.00159502
0.00165962
0.00172457
0.00185883
0.0015697
0.000298359
-0.000403123
-0.000283753
-0.000364476
-0.000423386
-0.000413363
-0.000367906
-0.000353684
-0.000402203
-0.000386186
-0.000302938
-0.00030275
-0.000316081
-0.000252689
-0.000211912
-0.000492045
-0.00096777
-0.00109309
-0.00100545
-0.000942313
-0.000917265
-0.00085949
-0.000777213
-0.000723867
-0.000685235
-0.000628589
-0.000572621
-0.000535798
-0.000501493
-0.000461434
-0.000428181
-0.00040353
-0.000378045
-0.000352258
-0.000331267
-0.000312765
-0.000293189
-0.000274429
-0.000257588
-0.000240803
-0.000223268
-0.000206225
-0.000189426
-0.000172097
-0.000154252
-0.000136473
-0.000118315
-9.96778e-05
-8.0631e-05
-6.14428e-05
-4.17675e-05
-2.17757e-05
-1.41943e-06
1.9112e-05
4.008e-05
6.12435e-05
8.27424e-05
0.00010438
0.000126407
0.000148561
0.000171024
0.000193605
0.00021658
0.000239634
0.000262998
0.00028654
0.00031052
0.000334525
0.000358954
0.000383752
0.00040898
0.000434235
0.000460332
0.000487031
0.000513995