# vtk DataFile Version 3.0
fluid_state
ASCII
DATASET RECTILINEAR_GRID
DIMENSIONS 100 40 1
X_COORDINATES 100 float
0.5 1.5 2.5 3.5 4.5 5.5 6.5 7.5 8.5 9.5 10.5 11.5 12.5 13.5 14.5 15.5 16.5 17.5 18.5 19.5 20.5 21.5 22.5 23.5 24.5 25.5 26.5 27.5 28.5 29.5 30.5 31.5 32.5 33.5 34.5 35.5 36.5 37.5 38.5 39.5 40.5 41.5 42.5 43.5 44.5 45.5 46.5 47.5 48.5 49.5 50.5 51.5 52.5 53.5 54.5 55.5 56.5 57.5 58.5 59.5 60.5 61.5 62.5 63.5 64.5 65.5 66.5 67.5 68.5 69.5 70.5 71.5 72.5 73.5 74.5 75.5 76.5 77.5 78.5 79.5 80.5 81.5 82.5 83.5 84.5 85.5 86.5 87.5 88.5 89.5 90.5 91.5 92.5 93.5 94.5 95.5 96.5 97.5 98.5 99.5 
Y_COORDINATES 40 float
0.5 1.5 2.5 3.5 4.5 5.5 6.5 7.5 8.5 9.5 10.5 11.5 12.5 13.5 14.5 15.5 16.5 17.5 18.5 19.5 20.5 21.5 22.5 23.5 24.5 25.5 26.5 27.5 28.5 29.5 30.5 31.5 32.5 33.5 34.5 35.5 36.5 37.5 38.5 39.5 
Z_COORDINATES 1 float
0
POINT_DATA 4000
SCALARS density_difference float 1
LOOKUP_TABLE default
0.000757198
0.000764671
0.000770616
0.000774367
0.000772888
0.000763715
0.000746634
0.000727653
0.000699179
0.000649563
0.000597385
0.000540932
0.000454803
0.000360631
0.000267135
0.000149768
2.69188e-05
-9.22382e-05
-0.000223511
-0.000345356
-0.000453747
-0.000569179
-0.00066208
-0.000731632
-0.000804533
-0.000856285
-0.000883574
-0.000912468
-0.000927345
-0.000923575
-0.000919787
-0.000911602
-0.000892243
-0.000868286
-0.000845576
-0.00082119
-0.000790652
-0.000759051
-0.00073092
-0.000701304
-0.000668173
-0.000636792
-0.000607827
-0.000577302
-0.000545824
-0.000516471
-0.000488119
-0.000458843
-0.000429909
-0.000402506
-0.000375352
-0.00034791
-0.000321168
-0.000295286
-0.000269398
-0.000243608
-0.000218415
-0.000193614
-0.000168787
-0.000144192
-0.000119958
-9.58725e-05
-7.17998e-05
-4.79342e-05
-2.42283e-05
-5.82695e-07
2.3036e-05
4.65329e-05
6.99761e-05
9.33752e-05
0.000116778
0.000140127
0.000163437
0.000186717
0.000210059
0.00023334
0.000256545
0.000279785
0.000303121
0.00032627
0.000349332
0.000372576
0.000395797
0.000418591
0.000441469
0.000464651
0.000487348
0.000509449
0.000532106
0.000554785
0.000576094
0.000597161
0.000619289
0.000640077
0.000658709
0.000678296
0.000698183
0.000714236
0.000728651
0.000744451
0.00074802
0.000755445
0.000760714
0.000762511
0.000758714
0.000745001
0.000729032
0.000711962
0.00067215
0.000619899
0.000579384
0.000514031
0.000417301
0.000334383
0.000246035
0.000122266
-2.06712e-06
-0.000109193
-0.000230247
-0.000359154
-0.000461509
-0.000560359
-0.000657061
-0.000721698
-0.000782984
-0.000843147
-0.000865243
-0.000880788
-0.000907061
-0.000908309
-0.000892696
-0.000885212
-0.000876037
-0.000852892
-0.000824263
-0.000802276
-0.000779276
-0.000747528
-0.000715806
-0.000689582
-0.000660999
-0.000628451
-0.000598208
-0.000570719
-0.000541193
-0.000510787
-0.000482496
-0.000455244
-0.00042684
-0.00039886
-0.000372221
-0.000345881
-0.000319092
-0.000293046
-0.00026766
-0.000242354
-0.000216985
-0.000192256
-0.000167752
-0.000143318
-0.000118955
-9.50225e-05
-7.10914e-05
-4.72693e-05
-2.3512e-05
-6.11468e-09
2.35897e-05
4.70465e-05
7.04931e-05
9.38068e-05
0.00011723
0.000140492
0.000163808
0.000187059
0.000210385
0.00023353
0.000256806
0.000280029
0.000303225
0.000326252
0.000349508
0.000372601
0.000395511
0.000418369
0.000441498
0.000464135
0.000486482
0.000509044
0.000531643
0.00055315
0.000574539
0.000596391
0.00061738
0.000636632
0.000656373
0.000676102
0.000693226
0.000708511
0.000724476
0.000738268
0.000742071
0.000752169
0.000755604
0.000752353
0.000747719
0.000739486
0.0007218
0.00069021
0.00065504
0.000619122
0.000556492
0.000476535
0.000411043
0.000320017
0.000199429
9.77357e-05
-1.38496e-05
-0.000147271
-0.000260572
-0.000373495
-0.00049078
-0.000575555
-0.000659801
-0.000743171
-0.000786905
-0.000825168
-0.000868515
-0.000882319
-0.000884087
-0.000891089
-0.000887642
-0.000871652
-0.000852939
-0.000837461
-0.00081633
-0.000787335
-0.00076066
-0.000737208
-0.000708218
-0.000676838
-0.000649069
-0.000622003
-0.000591577
-0.000561809
-0.000534331
-0.00050653
-0.0004774
-0.0004497
-0.000422986
-0.000395928
-0.000368669
-0.000342644
-0.000316849
-0.00029099
-0.000265336
-0.000240493
-0.000215566
-0.000190813
-0.000166273
-0.0001422
-0.00011797
-9.40118e-05
-7.01351e-05
-4.65357e-05
-2.27815e-05
7.09494e-07
2.42395e-05
4.75686e-05
7.10554e-05
9.43225e-05
0.000117685
0.000140876
0.00016425
0.000187418
0.00021068
0.000233813
0.000257146
0.000280209
0.00030336
0.000326465
0.000349698
0.000372507
0.000395495
0.000418512
0.000441354
0.000463633
0.000486379
0.000508974
0.000530764
0.000552163
0.000574407
0.000595563
0.000615183
0.000635284
0.000655919
0.00067332
0.000689286
0.000706867
0.000722383
0.000732215
0.000742913
0.000748643
0.000751605
0.000751898
0.000745571
0.000734877
0.000716776
0.000684082
0.000651857
0.00061121
0.000538437
0.000466231
0.000399091
0.000290285
0.000170563
6.75318e-05
-5.04662e-05
-0.000190772
-0.000314549
-0.000417224
-0.000532923
-0.000630783
-0.000699308
-0.000773792
-0.000823558
-0.000843566
-0.000878674
-0.000899544
-0.00088755
-0.000883684
-0.000883694
-0.000868622
-0.000843456
-0.000822558
-0.000804895
-0.000779339
-0.000748309
-0.0007228
-0.000698196
-0.00066855
-0.000638152
-0.000611597
-0.000584282
-0.000554881
-0.000526318
-0.000499827
-0.000472379
-0.000444539
-0.000417672
-0.000391816
-0.000365259
-0.000339069
-0.000313533
-0.000288476
-0.000263014
-0.00023814
-0.000213547
-0.000189219
-0.000164687
-0.000140698
-0.000116713
-9.29443e-05
-6.90513e-05
-4.55726e-05
-2.19461e-05
1.4568e-06
2.49831e-05
4.82159e-05
7.16551e-05
9.48493e-05
0.000118206
0.000141351
0.000164692
0.000187771
0.000211073
0.000234188
0.000257429
0.000280423
0.000303707
0.000326728
0.000349771
0.000372657
0.000395844
0.000418529
0.000441188
0.000463868
0.000486626
0.000508486
0.00053049
0.000552622
0.000574113
0.000594355
0.000615239
0.000635738
0.000654251
0.000671713
0.000690154
0.000706137
0.000718837
0.000731382
0.000745111
0.000748728
0.000754472
0.00075745
0.000749335
0.000733828
0.000717093
0.000694477
0.000653365
0.000591722
0.000538917
0.000475997
0.000358758
0.000251386
0.000165995
1.67878e-05
-0.00013142
-0.000240559
-0.000379154
-0.000511121
-0.000604307
-0.000712933
-0.00078565
-0.000821634
-0.000881711
-0.000916133
-0.000905085
-0.000912282
-0.000920802
-0.000904966
-0.000879347
-0.000862921
-0.00084922
-0.000820986
-0.00078901
-0.000768094
-0.000744524
-0.000712367
-0.000682926
-0.000659061
-0.000631174
-0.000600708
-0.000573347
-0.000547793
-0.000519498
-0.00049146
-0.000465319
-0.000439467
-0.000412281
-0.000386192
-0.000360879
-0.000335526
-0.00030972
-0.000284959
-0.000260301
-0.000235708
-0.000211025
-0.000187087
-0.00016296
-0.000139052
-0.000115102
-9.1639e-05
-6.7905e-05
-4.44651e-05
-2.09162e-05
2.29308e-06
2.57828e-05
4.8971e-05
7.23341e-05
9.54254e-05
0.0001188
0.00014188
0.000165162
0.000188214
0.000211549
0.00023456
0.000257784
0.000280829
0.000304106
0.000326976
0.000350111
0.000373106
0.000396148
0.000418695
0.000441668
0.000464394
0.000486766
0.000508721
0.000531343
0.000553141
0.000574054
0.000595084
0.000616684
0.000635989
0.000654282
0.000673726
0.000692138
0.000705933
0.000719995
0.000735344
0.000748041
0.000759621
0.000764598
0.00076045
0.000758214
0.000749385
0.00072577
0.000699132
0.000660108
0.000599977
0.000541661
0.000457102
0.000339452
0.00023681
0.000111718
-4.87302e-05
-0.000197216
-0.00033504
-0.000477787
-0.000628412
-0.000728557
-0.000814942
-0.00090016
-0.000936541
-0.000957655
-0.000990391
-0.000978011
-0.000957265
-0.000952841
-0.000932061
-0.000901546
-0.00087196
-0.000846563
-0.00082213
-0.000789773
-0.000758333
-0.000732485
-0.000705473
-0.000674428
-0.000645963
-0.0006197
-0.000592268
-0.0005635
-0.000536911
-0.000510819
-0.000484104
-0.000457194
-0.000431849
-0.000406276
-0.000380603
-0.000355123
-0.000330634
-0.000305702
-0.000281049
-0.000256569
-0.000232675
-0.000208367
-0.000184508
-0.000160648
-0.000137165
-0.000113352
-8.99954e-05
-6.64737e-05
-4.32563e-05
-1.97611e-05
3.34373e-06
2.67099e-05
4.97776e-05
7.31179e-05
9.61409e-05
0.000119449
0.000142446
0.000165748
0.000188769
0.000212038
0.000235004
0.000258326
0.000281325
0.0003045
0.000327444
0.000350752
0.00037357
0.000396543
0.000419432
0.000442508
0.000464814
0.000487456
0.000510093
0.000532346
0.000553648
0.000575764
0.000597432
0.000617665
0.000637354
0.0006583
0.000676976
0.000693184
0.00071037
0.000727585
0.000738612
0.000760093
0.000772537
0.000775621
0.000774591
0.000775817
0.000767187
0.000743501
0.000710575
0.000673301
0.00062641
0.000538761
0.000425434
0.000350288
0.000220243
1.06883e-05
-0.000114539
-0.00025403
-0.000475699
-0.000627409
-0.000750445
-0.000893524
-0.000961589
-0.00102656
-0.00109919
-0.0010756
-0.00105079
-0.00107379
-0.00104701
-0.000991323
-0.00095382
-0.000934244
-0.000901372
-0.000850286
-0.000817087
-0.000794472
-0.000758754
-0.000720462
-0.000694178
-0.00066798
-0.000635831
-0.000605848
-0.000581176
-0.000554291
-0.000525823
-0.000499605
-0.00047525
-0.000448988
-0.000423046
-0.000398408
-0.000374246
-0.000348962
-0.000324558
-0.000300592
-0.000276743
-0.000252353
-0.000228798
-0.000205165
-0.000181682
-0.00015792
-0.000134786
-0.000111353
-8.81666e-05
-6.47565e-05
-4.17984e-05
-1.84778e-05
4.53705e-06
2.78009e-05
5.07154e-05
7.3998e-05
9.6953e-05
0.000120188
0.000143128
0.000166426
0.000189376
0.000212628
0.000235624
0.000258937
0.000281864
0.000305133
0.000328164
0.000351404
0.000374221
0.000397471
0.000420413
0.000443345
0.000465912
0.000489032
0.000511523
0.000533719
0.000555843
0.000578468
0.000599654
0.000620441
0.000641763
0.000662739
0.000680827
0.000699215
0.000718518
0.000734522
0.000746146
0.000777578
0.000783044
0.000793006
0.000804633
0.000796947
0.000781211
0.000775098
0.000745996
0.000689853
0.000636469
0.000555446
0.000443536
0.000324843
0.000154542
-1.47713e-05
-0.000186578
-0.000404134
-0.00059573
-0.000779798
-0.000921234
-0.0010752
-0.00117054
-0.00118701
-0.00121264
-0.00123399
-0.00118511
-0.00114898
-0.00110791
-0.00105751
-0.00101362
-0.000956488
-0.000912682
-0.000875643
-0.000829216
-0.000786816
-0.000754982
-0.000721345
-0.00068532
-0.000653712
-0.000626239
-0.000596694
-0.000567483
-0.000540979
-0.00051566
-0.000488832
-0.000463277
-0.000438894
-0.000414564
-0.000389481
-0.000365687
-0.000342017
-0.000318284
-0.000294286
-0.000271212
-0.000247789
-0.000224511
-0.000201099
-0.000178268
-0.000154985
-0.00013201
-0.000108847
-8.60714e-05
-6.28772e-05
-4.00428e-05
-1.69312e-05
5.85985e-06
2.90289e-05
5.18561e-05
7.50088e-05
9.7848e-05
0.000121059
0.000143956
0.000167171
0.000190077
0.00021338
0.000236353
0.000259602
0.000282592
0.000305993
0.000328958
0.000352187
0.00037528
0.000398676
0.000421438
0.000444625
0.00046778
0.000490827
0.00051313
0.00053631
0.00055919
0.00058116
0.000602811
0.000625894
0.000647314
0.000667015
0.000687975
0.000709836
0.00072667
0.000742515
0.000762174
0.000793202
0.000806185
0.000821032
0.00082792
0.000824589
0.000820222
0.000808923
0.000777741
0.000729525
0.000658127
0.000578133
0.000481922
0.000284164
9.12059e-05
-5.67506e-06
-0.000286532
-0.000573987
-0.00069774
-0.000937856
-0.00114907
-0.00124001
-0.00136808
-0.00140863
-0.0013264
-0.00135422
-0.00134683
-0.00123025
-0.00116053
-0.00112007
-0.00107178
-0.000993162
-0.000925877
-0.000890305
-0.000845803
-0.000789726
-0.000749384
-0.000717829
-0.000680359
-0.000642895
-0.000613797
-0.000585786
-0.000555583
-0.000527265
-0.000502771
-0.000477359
-0.00045151
-0.00042712
-0.000404238
-0.000380206
-0.000356515
-0.000333522
-0.000311021
-0.000287663
-0.000264892
-0.000242223
-0.00021974
-0.000196701
-0.000174222
-0.000151511
-0.000128974
-0.000106047
-8.3573e-05
-6.07285e-05
-3.81169e-05
-1.51695e-05
7.41652e-06
3.04084e-05
5.31179e-05
7.61609e-05
9.89008e-05
0.000122039
0.000144862
0.000168036
0.000190941
0.000214212
0.000237144
0.000260462
0.000283521
0.000306879
0.0003299
0.000353367
0.000376521
0.000399875
0.000422968
0.000446556
0.000469647
0.000492869
0.000516022
0.000539582
0.000562283
0.000585207
0.000608326
0.00063137
0.000653037
0.000675353
0.000697892
0.000718991
0.000738167
0.000758875
0.000778428
0.000814083
0.000838947
0.000850255
0.000851426
0.000867969
0.000874457
0.000840596
0.000812772
0.00079641
0.000712583
0.000593228
0.000488104
0.000321028
0.000110048
-0.000142393
-0.000393477
-0.000544462
-0.000837097
-0.00113116
-0.00135485
-0.00142413
-0.00149668
-0.00158632
-0.00156718
-0.00144179
-0.00138107
-0.0013183
-0.00127436
-0.001178
-0.0010744
-0.00103063
-0.000973103
-0.000895005
-0.000842351
-0.000803571
-0.000754896
-0.000706749
-0.000671817
-0.000638927
-0.000602697
-0.000570388
-0.000543933
-0.000516151
-0.000488175
-0.000463327
-0.000440251
-0.000415573
-0.000391883
-0.000369611
-0.000347468
-0.000324352
-0.000302288
-0.000280415
-0.000258388
-0.000235881
-0.000214112
-0.000191989
-0.000169874
-0.000147457
-0.000125495
-0.000103052
-8.0785e-05
-5.82207e-05
-3.59681e-05
-1.3258e-05
9.19898e-06
3.19879e-05
5.45065e-05
7.74468e-05
0.000100116
0.000123128
0.000145875
0.000169039
0.000191917
0.00021512
0.000238085
0.000261478
0.000284523
0.000307888
0.000331106
0.000354705
0.00037783
0.000401393
0.000424929
0.000448603
0.000471726
0.000495662
0.000519493
0.000542918
0.000566117
0.000590725
0.000614416
0.000637076
0.000660822
0.000686079
0.000708079
0.000729435
0.00075448
0.000778161
0.000794322
0.000843786
0.000863989
0.000881824
0.000900616
0.000912633
0.000909642
0.0009039
0.000888931
0.000837943
0.00076778
0.000671778
0.000507648
0.00036285
0.000168556
-0.000263148
-0.000453744
-0.000516985
-0.000923076
-0.00115264
-0.00142415
-0.00171568
-0.00174459
-0.00162567
-0.00167435
-0.00154179
-0.00144216
-0.00141878
-0.00132025
-0.00121686
-0.00111495
-0.00104783
-0.000988456
-0.00091373
-0.000851995
-0.000804093
-0.000754565
-0.000705731
-0.000665311
-0.000629077
-0.000593175
-0.000559381
-0.000530311
-0.000502874
-0.000475758
-0.000449928
-0.000426647
-0.000403541
-0.000380533
-0.000358139
-0.000336913
-0.000315185
-0.000293592
-0.00027215
-0.00025115
-0.000229525
-0.000208131
-0.000186581
-0.000165203
-0.000143289
-0.000121642
-9.96718e-05
-7.78363e-05
-5.5562e-05
-3.35478e-05
-1.11439e-05
1.10862e-05
3.37008e-05
5.60766e-05
7.88511e-05
0.000101404
0.000124329
0.000147034
0.000170115
0.000192943
0.000216167
0.000239173
0.000262511
0.000285608
0.00030915
0.000332429
0.000356001
0.000379427
0.000403326
0.000426839
0.000450703
0.000474606
0.000498866
0.000522598
0.000546978
0.000571531
0.000596059
0.000620133
0.000645399
0.000670552
0.000695101
0.000719741
0.000745907
0.000770753
0.000794386
0.000818877
0.000873326
0.000892317
0.000921992
0.000952934
0.000956987
0.000959127
0.0009865
0.000967569
0.000886707
0.000848011
0.000787861
0.000579557
0.000370942
0.000211543
-6.78665e-05
-0.000451109
-0.000860571
-0.000821026
-0.000957599
-0.00130441
-0.00133719
-0.00164583
-0.0017441
-0.00152401
-0.00160552
-0.00161237
-0.00151325
-0.00129209
-0.00121984
-0.00118671
-0.00106567
-0.000973561
-0.000931007
-0.000872025
-0.000799606
-0.000748855
-0.000709259
-0.000661677
-0.000616518
-0.000583552
-0.000551828
-0.000517508
-0.000487975
-0.000463838
-0.000438317
-0.000412805
-0.000390443
-0.000369568
-0.000347246
-0.000325718
-0.000305395
-0.000285068
-0.000263833
-0.000243314
-0.000222849
-0.000202141
-0.000180911
-0.000160128
-0.000138953
-0.00011768
-9.60374e-05
-7.46533e-05
-5.27935e-05
-3.09917e-05
-8.8507e-06
1.31056e-05
3.55078e-05
5.77653e-05
8.03621e-05
0.000102784
0.000125622
0.000148273
0.000171257
0.000194072
0.000217299
0.000240297
0.000263628
0.000286842
0.000310457
0.000333773
0.000357497
0.000381209
0.000405218
0.000428884
0.000453224
0.000477598
0.000501985
0.000526238
0.000551676
0.000576814
0.000601589
0.000627143
0.000654334
0.000679956
0.000705359
0.00073364
0.000762633
0.000787282
0.000814131
0.000846506
0.000900271
0.000935407
0.000964948
0.000988635
0.00101873
0.00104374
0.00104055
0.00102898
0.0010292
0.000962101
0.000815787
0.000712092
0.00053955
0.000246075
0.000183904
-0.000321323
-0.00111757
-0.000501698
-0.000446404
-0.00102513
-0.000534656
-0.000972899
-0.00119844
-0.00101056
-0.00157667
-0.00169174
-0.00144469
-0.00136075
-0.00125248
-0.00115874
-0.00107598
-0.00100373
-0.000934083
-0.000864509
-0.000806111
-0.000753901
-0.000701903
-0.000655056
-0.000613401
-0.000574389
-0.000539054
-0.000507752
-0.000477786
-0.000450086
-0.000425294
-0.000401928
-0.000378675
-0.000357079
-0.000336527
-0.000316085
-0.000295499
-0.000275783
-0.000255966
-0.000235982
-0.000215772
-0.00019589
-0.000175521
-0.000155068
-0.000134316
-0.000113659
-9.24912e-05
-7.13507e-05
-4.98608e-05
-2.84236e-05
-6.54584e-06
1.52419e-05
3.73967e-05
5.9463e-05
8.19171e-05
0.000104257
0.000126953
0.000149516
0.000172462
0.000195281
0.000218424
0.000241432
0.000264861
0.000288124
0.00031169
0.000335212
0.000359189
0.000382905
0.000407019
0.000431286
0.000455919
0.000480212
0.000505291
0.000530684
0.000556099
0.000581448
0.000608336
0.000635212
0.000661704
0.000689323
0.000719037
0.000747399
0.000775848
0.000807503
0.000839892
0.000868795
0.000931031
0.000974322
0.00100779
0.00103568
0.00108096
0.00111794
0.00111455
0.00112514
0.00115456
0.00107123
0.000930471
0.000881518
0.000731446
0.000399162
0.000130395
-0.000236187
-0.00058535
-0.000392371
-0.000275035
-0.000437142
-0.000470795
-0.000593699
-0.000476383
-0.000553004
-0.00106352
-0.00134837
-0.00136383
-0.00142988
-0.00128279
-0.00112416
-0.00108383
-0.00102167
-0.000926311
-0.000861335
-0.000815486
-0.000754773
-0.000693261
-0.000650006
-0.000611152
-0.000566732
-0.000527505
-0.000498008
-0.000468905
-0.00043867
-0.00041291
-0.00039108
-0.000368361
-0.000345977
-0.000325894
-0.000306732
-0.000286615
-0.00026701
-0.000248058
-0.000228972
-0.000209193
-0.000189735
-0.000170121
-0.000150227
-0.00012985
-0.000109614
-8.8962e-05
-6.81494e-05
-4.69551e-05
-2.58233e-05
-4.25338e-06
1.73496e-05
3.92938e-05
6.11842e-05
8.34765e-05
0.000105721
0.000128288
0.000150792
0.000173674
0.000196458
0.000219565
0.000242621
0.000266051
0.000289346
0.00031301
0.000336686
0.000360716
0.000384605
0.000409025
0.000433538
0.00045833
0.000483121
0.000508789
0.00053452
0.000560436
0.000586896
0.0006147
0.000642169
0.000669995
0.000699695
0.00073086
0.000760539
0.000791824
0.000827348
0.000862451
0.000893742
0.000964727
0.00100147
0.00104947
0.00110017
0.00113499
0.00117137
0.00122484
0.00124443
0.00120956
0.00121762
0.00123046
0.000998954
0.000736667
0.000492135
9.47442e-07
-0.000236983
-0.000345497
-0.000508819
-0.000550401
-0.000354405
-0.000469414
-0.000410448
-0.000360066
-0.000398111
-0.000571292
-0.000841328
-0.00120418
-0.00129848
-0.00122386
-0.00117594
-0.00109044
-0.000992666
-0.000929906
-0.000875636
-0.000806082
-0.000746284
-0.000699287
-0.000648061
-0.000598428
-0.000560261
-0.000524717
-0.000487788
-0.000456484
-0.000430787
-0.000404635
-0.000379397
-0.000357831
-0.000337705
-0.0003168
-0.000297014
-0.000278496
-0.000259825
-0.000240609
-0.000221994
-0.00020335
-0.000184292
-0.000164846
-0.000145569
-0.000125843
-0.000105838
-8.54901e-05
-6.51267e-05
-4.42832e-05
-2.33156e-05
-2.01212e-06
1.93289e-05
4.10837e-05
6.2871e-05
8.49837e-05
0.000107095
0.000129577
0.000152048
0.000174819
0.000197564
0.000220694
0.000243773
0.000267133
0.000290525
0.000314344
0.000338037
0.000362083
0.000386345
0.000411002
0.00043546
0.000460618
0.00048622
0.000511964
0.000537724
0.000564987
0.000592566
0.000619883
0.000648423
0.000679414
0.000709541
0.000739822
0.000774163
0.000810415
0.000843539
0.000880286
0.000924073
0.000992158
0.00103611
0.00108894
0.0011485
0.00119577
0.00123829
0.00130515
0.0013546
0.00134542
0.00135946
0.00137816
0.00128
0.000967539
0.00023604
-0.000325157
-0.000352259
-0.00044125
-0.000485404
-0.000436016
-0.000390121
-0.000464344
-0.000381661
-0.000350222
-0.000370779
-0.000394201
-0.000423561
-0.000740476
-0.00114397
-0.00125811
-0.00116946
-0.00104184
-0.000986144
-0.000945966
-0.00087222
-0.000796649
-0.000745408
-0.000698589
-0.000643633
-0.000593173
-0.000554168
-0.00051799
-0.000481047
-0.000448625
-0.000421913
-0.000396364
-0.000371392
-0.000349156
-0.000329142
-0.000309124
-0.000289553
-0.000271045
-0.000252984
-0.000234473
-0.000216107
-0.000197825
-0.000179363
-0.000160394
-0.000141389
-0.000122071
-0.000102482
-8.24509e-05
-6.23266e-05
-4.17982e-05
-2.10807e-05
1.10373e-08
2.11831e-05
4.27381e-05
6.43877e-05
8.63654e-05
0.000108392
0.000130766
0.000153168
0.000175882
0.000198627
0.000221704
0.000244778
0.000268188
0.000291648
0.000315445
0.000339259
0.000363503
0.000387848
0.00041257
0.000437433
0.000462913
0.000488571
0.000514736
0.000541362
0.000568897
0.000596714
0.000625393
0.000655181
0.000686247
0.000717737
0.000750886
0.000786346
0.000823358
0.000860657
0.000901411
0.000946771
0.00101376
0.00107469
0.00112564
0.00117683
0.00125177
0.00132361
0.00136859
0.00142588
0.00150822
0.00151509
0.00146054
0.00158658
0.00118277
3.62729e-05
-0.000482667
-0.00044093
-0.000399062
-0.000370304
-0.000414054
-0.000474192
-0.000370644
-0.000359674
-0.000418532
-0.000371508
-0.000262603
-0.00025991
-0.000471796
-0.000950797
-0.00117943
-0.00110263
-0.00105798
-0.00100671
-0.000918709
-0.000851822
-0.000810844
-0.000751107
-0.000682782
-0.000636727
-0.000597841
-0.000549451
-0.00050652
-0.00047621
-0.000445872
-0.000413595
-0.000387502
-0.000366026
-0.000343246
-0.000321163
-0.000302292
-0.000284176
-0.000265077
-0.000246784
-0.000229378
-0.000211545
-0.000193115
-0.00017502
-0.000156752
-0.000137967
-0.000118777
-9.95865e-05
-7.99393e-05
-5.99477e-05
-3.96183e-05
-1.91727e-05
1.71487e-06
2.27932e-05
4.41824e-05
6.56786e-05
8.75516e-05
0.000109528
0.00013179
0.000154123
0.000176811
0.000199552
0.000222556
0.000245646
0.000269121
0.000292595
0.000316361
0.000340346
0.00036474
0.000389063
0.000413911
0.000439224
0.000464823
0.00049044
0.000517242
0.000544624
0.000571962
0.000600142
0.000630589
0.000660963
0.000691342
0.000725065
0.000761522
0.000795938
0.000832929
0.000877496
0.000921797
0.000962303
0.00103528
0.00109251
0.00115498
0.00121888
0.00129067
0.0013724
0.00144196
0.0015056
0.00160493
0.00166358
0.00165209
0.00171583
0.000706499
-0.000305898
-0.000333599
-0.000401597
-0.000410945
-0.000403702
-0.000413796
-0.000409637
-0.000366636
-0.000386395
-0.000354517
-0.000322674
-0.000287601
-0.000290433
-0.000301421
-0.000686406
-0.00110338
-0.001082
-0.00105887
-0.000983181
-0.000911891
-0.00086024
-0.000802908
-0.000741033
-0.000686254
-0.000636374
-0.000588747
-0.000545414
-0.000506207
-0.000470455
-0.000438613
-0.000410015
-0.000383521
-0.000359452
-0.00033762
-0.000317067
-0.000297335
-0.000278713
-0.000260701
-0.000242866
-0.000225104
-0.000207556
-0.000189815
-0.000171856
-0.000153626
-0.000135228
-0.000116402
-9.73002e-05
-7.78268e-05
-5.81115e-05
-3.79726e-05
-1.76132e-05
3.11119e-06
2.40302e-05
4.5311e-05
6.67458e-05
8.85088e-05
0.000110399
0.000132608
0.000154926
0.000177541
0.000200245
0.000223269
0.000246383
0.000269793
0.000293313
0.000317206
0.000341196
0.000365546
0.000390128
0.000415175
0.000440372
0.000466153
0.000492408
0.000519231
0.000546435
0.000574745
0.000603814
0.000633637
0.000664585
0.000697445
0.000731261
0.000766589
0.000804578
0.000845121
0.000887171
0.000932899
0.000982647
0.00105066
0.0011029
0.00117489
0.00125502
0.00131904
0.00139182
0.00149843
0.00160097
0.00166577
0.00173086
0.00186552
0.00157484
0.000297147
-0.000407906
-0.000288057
-0.000369463
-0.000428795
-0.000418788
-0.000373272
-0.000359094
-0.000407857
-0.000391762
-0.000308236
-0.000308189
-0.000321512
-0.000257662
-0.000217074
-0.000498988
-0.000977095
-0.00110328
-0.00101549
-0.000952167
-0.000927057
-0.000869046
-0.000786337
-0.000732555
-0.00069349
-0.000636297
-0.000579722
-0.000542302
-0.000507393
-0.000466687
-0.000432795
-0.000407522
-0.000381426
-0.000355022
-0.000333447
-0.000314373
-0.000294247
-0.000274943
-0.000257591
-0.000240301
-0.000222288
-0.000204769
-0.000187528
-0.000169756
-0.0001515
-0.00013331
-0.000114773
-9.57563e-05
-7.63643e-05
-5.683e-05
-3.68455e-05
-1.65428e-05
4.08515e-06
2.48896e-05
4.60891e-05
6.7486e-05
8.91747e-05
0.000111004
0.000133177
0.00015548
0.000178046
0.000200732
0.000223765
0.000246883
0.000270262
0.000293826
0.000317779
0.000341766
0.00036613
0.000390874
0.000416002
0.00044117
0.000467135
0.000493724
0.000520531
0.000547782
0.000576724
0.000606188
0.000635738
0.00066731
0.00070158
0.000735296
0.000770282
0.00081082
0.000853364
0.000893603
0.000940714
0.000997528
0.00105551
0.00112179
0.00118456
0.00125335
0.00134079
0.00143071
0.00151419
0.00160902
0.00170953
0.00184851
0.00200635
0.00144112
0.000341335
-0.000372277
-0.00042675
-0.000380353
-0.00035816
-0.000386104
-0.000405788
-0.000397257
-0.000364447
-0.00033794
-0.000356234
-0.00031982
-0.000280096
-0.000247446
-0.000196863
-0.000442379
-0.00084118
-0.00104832
-0.00102172
-0.000981211
-0.00090802
-0.000845153
-0.000800977
-0.000742887
-0.00067839
-0.000630325
-0.000588716
-0.000541425
-0.000498941
-0.000466469
-0.000435297
-0.000403837
-0.000377477
-0.000355104
-0.000332641
-0.000311204
-0.000292332
-0.000274318
-0.000255932
-0.000238208
-0.000221135
-0.000203809
-0.000186077
-0.000168476
-0.000150667
-0.00013241
-0.000113763
-9.49667e-05
-7.57377e-05
-5.61462e-05
-3.61964e-05
-1.60323e-05
4.54385e-06
2.53663e-05
4.65098e-05
6.78338e-05
8.95069e-05
0.000111346
0.000133472
0.000155732
0.000178315
0.000201021
0.000223991
0.000247101
0.000270561
0.000294115
0.00031797
0.00034207
0.000366574
0.000391162
0.000416252
0.000441811
0.000467777
0.000493967
0.000521204
0.000549118
0.00057738
0.000606589
0.000637774
0.000669448
0.000701828
0.00073717
0.000775142
0.000812805
0.000853608
0.00090073
0.000949032
0.000997247
0.00105551
0.00112179
0.00118456
0.00125335
0.00134079
0.00143071
0.00151419
0.00160902
0.00170953
0.00184851
0.00200635
0.00144112
0.000341335
-0.000372277
-0.00042675
-0.000380353
-0.00035816
-0.000386104
-0.000405788
-0.000397257
-0.000364447
-0.00033794
-0.000356234
-0.00031982
-0.000280096
-0.000247446
-0.000196863
-0.000442379
-0.00084118
-0.00104832
-0.00102172
-0.000981211
-0.00090802
-0.000845153
-0.000800977
-0.000742887
-0.00067839
-0.000630325
-0.000588716
-0.000541425
-0.000498941
-0.000466469
-0.000435297
-0.000403837
-0.000377477
-0.000355104
-0.000332641
-0.000311204
-0.000292332
-0.000274318
-0.000255932
-0.000238208
-0.000221135
-0.000203809
-0.000186077
-0.000168476
-0.000150667
-0.00013241
-0.000113763
-9.49667e-05
-7.57377e-05
-5.61462e-05
-3.61964e-05
-1.60323e-05
4.54385e-06
2.53663e-05
4.65098e-05
6.78338e-05
8.95069e-05
0.000111346
0.000133472
0.000155732
0.000178315
0.000201021
0.000223991
0.000247101
0.000270561
0.000294115
0.00031797
0.00034207
0.000366574
0.000391162
0.000416252
0.000441811
0.000467777
0.000493967
0.000521204
0.000549118
0.00057738
0.000606589
0.000637774
0.000669448
0.000701828
0.00073717
0.000775142
0.000812805
0.000853608
0.00090073
0.000949032
0.000997247
0.00105066
0.0011029
0.00117489
0.00125502
0.00131904
0.00139182
0.00149843
0.00160097
0.00166577
0.00173086
0.00186552
0.00157484
0.000297147
-0.000407906
-0.000288057
-0.000369463
-0.000428795
-0.000418788
-0.000373272
-0.000359094
-0.000407857
-0.000391762
-0.000308236
-0.000308189
-0.000321512
-0.000257662
-0.000217074
-0.000498988
-0.000977095
-0.00110328
-0.00101549
-0.000952167
-0.000927057
-0.000869046
-0.000786337
-0.000732555
-0.00069349
-0.000636297
-0.000579722
-0.000542302
-0.000507393
-0.000466687
-0.000432795
-0.000407522
-0.000381426
-0.000355022
-0.000333447
-0.000314373
-0.000294247
-0.000274943
-0.000257591
-0.000240301
-0.000222288
-0.000204769
-0.000187528
-0.000169756
-0.0001515
-0.00013331
-0.000114773
-9.57563e-05
-7.63643e-05
-5.683e-05
-3.68455e-05
-1.65428e-05
4.08515e-06
2.48896e-05
4.60891e-05
6.7486e-05
8.91747e-05
0.000111004
0.000133177
0.00015548
0.000178046
0.000200732
0.000223765
0.000246883
0.000270262
0.000293826
0.000317779
0.000341766
0.00036613
0.000390874
0.000416002
0.00044117
0.000467135