# vtk DataFile Version 3.0
fluid_state
ASCII
DATASET RECTILINEAR_GRID
DIMENSIONS 100 40 1
X_COORDINATES 100 float
0.5 1.5 2.5 3.5 4.5 5.5 6.5 7.5 8.5 9.5 10.5 11.5 12.5 13.5 14.5 15.5 16.5 17.5 18.5 19.5 20.5 21.5 22.5 23.5 24.5 25.5 26.5 27.5 28.5 29.5 30.5 31.5 32.5 33.5 34.5 35.5 36.5 37.5 38.5 39.5 40.5 41.5 42.5 43.5 44.5 45.5 46.5 47.5 48.5 49.5 50.5 51.5 52.5 53.5 54.5 55.5 56.5 57.5 58.5 59.5 60.5 61.5 62.5 63.5 64.5 65.5 66.5 67.5 68.5 69.5 70.5 71.5 72.5 73.5 74.5 75.5 76.5 77.5 78.5 79.5 80.5 81.5 82.5 83.5 84.5 85.5 86.5 87.5 88.5 89.5 90.5 91.5 92.5 93.5 94.5 95.5 96.5 97.5 98.5 99.5 
Y_COORDINATES 40 float
0.5 1.5 2.5 3.5 4.5 5.5 6.5 7.5 8.5 9.5 10.5 11.5 12.5 13.5 14.5 15.5 16.5 17.5 18.5 19.5 20.5 21.5 22.5 23.5 24.5 25.5 26.5 27.5 28.5 29.5 30.5 31.5 32.5 33.5 34.5 35.5 36.5 37.5 38.5 39.5 
Z_COORDINATES 1 float
0
POINT_DATA 4000
SCALARS density_difference float 1
LOOKUP_TABLE default
0.000758454
0.0007659
0.000771806
0.00077552
0.000773986
0.00076476
0.000747601
0.00072855
0.000699984
0.000650261
0.000597958
0.000541389
0.000455098
0.000360767
0.0002671
0.00014955
2.65026e-05
-9.28355e-05
-0.000224315
-0.000346333
-0.000454892
-0.000570489
-0.000663533
-0.000733182
-0.000806197
-0.000858023
-0.000885366
-0.000914299
-0.000929207
-0.00092544
-0.000921655
-0.000913456
-0.000894081
-0.000870088
-0.000847346
-0.000822921
-0.000792338
-0.000760679
-0.0007325
-0.000702826
-0.000669633
-0.000638185
-0.000609159
-0.000578564
-0.000547016
-0.00051759
-0.00048917
-0.000459817
-0.000430811
-0.00040333
-0.000376105
-0.000348584
-0.00032177
-0.000295809
-0.000269849
-0.000243981
-0.000218718
-0.00019384
-0.000168942
-0.000144273
-0.000119971
-9.58124e-05
-7.16739e-05
-4.77375e-05
-2.39686e-05
-2.54799e-07
2.34242e-05
4.69863e-05
7.04867e-05
9.39478e-05
0.000117404
0.000140812
0.000164172
0.000187506
0.000210895
0.000234227
0.000257474
0.000280761
0.000304135
0.000327326
0.000350421
0.000373703
0.000396953
0.00041978
0.000442682
0.000465892
0.000488608
0.000510731
0.000533403
0.000556099
0.000577416
0.000598495
0.000620625
0.00064142
0.000660046
0.000679634
0.000699511
0.000715555
0.00072995
0.000745737
0.000749261
0.000756679
0.000761889
0.000763662
0.000759796
0.000746043
0.000729977
0.00071286
0.000672926
0.000620585
0.000579936
0.000514481
0.000417556
0.00033451
0.000245974
0.000122042
-2.52361e-06
-0.000109793
-0.000231061
-0.000360133
-0.000462679
-0.000561642
-0.000658522
-0.000723232
-0.00078464
-0.000844859
-0.000867031
-0.00088258
-0.000908914
-0.000910146
-0.000894551
-0.000887027
-0.000877863
-0.000854669
-0.000826019
-0.00080397
-0.000780955
-0.000749133
-0.000717372
-0.000691075
-0.000662455
-0.000629822
-0.000599531
-0.00057196
-0.000542384
-0.000511888
-0.000483544
-0.000456203
-0.000427743
-0.000399672
-0.000372976
-0.000346545
-0.000319698
-0.00029356
-0.000268118
-0.000242721
-0.000217295
-0.000192476
-0.000167917
-0.000143395
-0.000118978
-9.49595e-05
-7.0977e-05
-4.70707e-05
-2.32643e-05
3.23014e-07
2.39652e-05
4.75007e-05
7.09906e-05
9.43797e-05
0.000117843
0.000141177
0.000164529
0.000187849
0.000211208
0.000234417
0.000257722
0.000281006
0.000304226
0.000327309
0.000350585
0.000373729
0.000396654
0.000419559
0.000442699
0.000465378
0.00048773
0.000510329
0.000532928
0.000554467
0.00057585
0.000597729
0.000618705
0.000637977
0.0006577
0.000677445
0.000694541
0.000709834
0.000725765
0.000739556
0.000743307
0.000753407
0.000756773
0.000753508
0.000748791
0.000740532
0.000722742
0.000691101
0.000655797
0.000619822
0.000557025
0.000476958
0.00041129
0.000320143
0.000199316
9.74915e-05
-1.43264e-05
-0.000147907
-0.000261434
-0.000374488
-0.000492001
-0.000576859
-0.000661284
-0.00074473
-0.000788587
-0.000826866
-0.000870321
-0.00088411
-0.000885938
-0.000892904
-0.0008895
-0.000873453
-0.000854754
-0.00083921
-0.000818087
-0.000789006
-0.000762322
-0.00073879
-0.000709782
-0.000678306
-0.000650514
-0.000623355
-0.000592896
-0.000563028
-0.000535516
-0.000507615
-0.000478445
-0.000450643
-0.000423888
-0.000396728
-0.000369424
-0.000343297
-0.000317458
-0.000291496
-0.000265798
-0.000240852
-0.000215882
-0.000191028
-0.000166445
-0.000142273
-0.000118001
-9.39458e-05
-7.00294e-05
-4.63352e-05
-2.25434e-05
1.03973e-06
2.46048e-05
4.80231e-05
7.15422e-05
9.48954e-05
0.000118287
0.000141561
0.000164961
0.000188208
0.000211492
0.000234699
0.000258051
0.000281184
0.000304349
0.000327522
0.000350764
0.000373635
0.000396629
0.000419703
0.000442546
0.000464876
0.000487618
0.000510261
0.000532041
0.000553482
0.000575711
0.000596903
0.000616501
0.000636633
0.00065724
0.000674665
0.000690594
0.000708194
0.000723666
0.000733506
0.000744153
0.000749886
0.000752775
0.000753067
0.000746646
0.000735932
0.000717723
0.000684982
0.000652619
0.000611916
0.000538958
0.000466656
0.000399326
0.000290386
0.000170415
6.72499e-05
-5.09919e-05
-0.000191462
-0.000315497
-0.000418277
-0.000534209
-0.000632169
-0.000700858
-0.000775394
-0.0008253
-0.000845295
-0.00088051
-0.000901354
-0.000889418
-0.000885496
-0.000885554
-0.000870417
-0.000845272
-0.000824284
-0.000806644
-0.000780998
-0.000749962
-0.000724355
-0.000699751
-0.00067
-0.000639585
-0.000612925
-0.000585593
-0.000556082
-0.000527494
-0.000500894
-0.000473418
-0.000445466
-0.000418568
-0.000392602
-0.000366012
-0.00033971
-0.000314141
-0.000288972
-0.000263477
-0.000238492
-0.000213865
-0.000189429
-0.000164863
-0.000140767
-0.000116751
-9.28763e-05
-6.89527e-05
-4.53712e-05
-2.17163e-05
1.78684e-06
2.53393e-05
4.86694e-05
7.21322e-05
9.54205e-05
0.000118798
0.000142033
0.000165392
0.000188558
0.000211874
0.000235072
0.000258323
0.000281396
0.000304687
0.000327783
0.000350828
0.000373784
0.000396969
0.000419719
0.00044237
0.000465111
0.000487858
0.000509772
0.00053176
0.000553942
0.000575411
0.000595697
0.000616553
0.000637091
0.000655568
0.000673063
0.000691463
0.00070747
0.000720117
0.000732682
0.000746354
0.000749985
0.000755652
0.000758634
0.00075042
0.0007349
0.000718046
0.000695398
0.000654141
0.00059242
0.000539438
0.000476441
0.000358949
0.000251442
0.000165826
1.64397e-05
-0.000132063
-0.000241332
-0.000380209
-0.000512316
-0.000605716
-0.000714444
-0.00078734
-0.000823328
-0.000883554
-0.000917962
-0.000906986
-0.000914131
-0.000922722
-0.000906815
-0.000881229
-0.000864713
-0.000851054
-0.00082272
-0.000790752
-0.000769738
-0.000746182
-0.00071391
-0.000684468
-0.000660494
-0.000632603
-0.000602017
-0.000574646
-0.000548976
-0.000520666
-0.000492506
-0.000466348
-0.000440377
-0.00041317
-0.000386961
-0.000361626
-0.000336153
-0.000310323
-0.000285443
-0.000260761
-0.00023605
-0.000211342
-0.000187288
-0.000163137
-0.000139114
-0.000115141
-9.1565e-05
-6.78094e-05
-4.42591e-05
-2.06903e-05
2.62665e-06
2.61342e-05
4.94272e-05
7.28057e-05
9.59985e-05
0.000119386
0.000142563
0.000165855
0.000189002
0.000212343
0.000235445
0.000258672
0.000281802
0.000305079
0.000328031
0.000351161
0.000374233
0.000397266
0.000419885
0.000442845
0.000465639
0.000487992
0.00051001
0.000532608
0.000554464
0.000575348
0.000596429
0.000617996
0.000637347
0.000655598
0.000675083
0.000693447
0.000707273
0.00072128
0.000736656
0.000749297
0.000760906
0.000765799
0.000761654
0.000759325
0.000750493
0.000726744
0.000700078
0.000660904
0.000600699
0.000542194
0.00045753
0.000339618
0.000236843
0.000111468
-4.91714e-05
-0.000197975
-0.000335962
-0.000478995
-0.000629791
-0.000730167
-0.000816608
-0.000902023
-0.000938399
-0.000959619
-0.000992325
-0.000980009
-0.00095918
-0.000954813
-0.000933941
-0.000903466
-0.000873766
-0.000848399
-0.000823866
-0.000791524
-0.000759962
-0.000734133
-0.000707004
-0.000675962
-0.000647373
-0.000621114
-0.000593558
-0.000564784
-0.00053807
-0.000511972
-0.000485131
-0.00045821
-0.000432739
-0.000407154
-0.000381354
-0.000355859
-0.000331246
-0.000306298
-0.00028152
-0.000257024
-0.000233006
-0.000208681
-0.0001847
-0.000160824
-0.000137221
-0.000113392
-8.99171e-05
-6.63812e-05
-4.30477e-05
-1.95397e-05
3.67857e-06
2.70556e-05
5.02338e-05
7.35827e-05
9.67132e-05
0.000120027
0.000143128
0.000166433
0.000189555
0.000212824
0.000235887
0.000259205
0.000282296
0.000305464
0.000328497
0.000351794
0.000374696
0.000397654
0.000420622
0.000443678
0.000466059
0.000488677
0.000511383
0.000533607
0.000554973
0.000577057
0.000598784
0.000618976
0.000638718
0.000659621
0.000678343
0.000694497
0.000711725
0.000728883
0.000739939
0.000761373
0.000773848
0.000776845
0.000775833
0.000776962
0.000768326
0.000744515
0.00071156
0.000674119
0.000627173
0.000539307
0.000425832
0.000350456
0.000220246
1.02995e-05
-0.000115099
-0.000254908
-0.000476841
-0.000628865
-0.000752033
-0.000895396
-0.000963497
-0.00102864
-0.00110128
-0.00107774
-0.00105284
-0.00107592
-0.00104904
-0.000993375
-0.000955742
-0.00093621
-0.000903232
-0.000852148
-0.000818825
-0.000796241
-0.000760397
-0.000722107
-0.000695698
-0.000669512
-0.000637231
-0.000607247
-0.000582447
-0.000555563
-0.000526962
-0.00050074
-0.000476256
-0.000449988
-0.000423915
-0.00039927
-0.000374978
-0.000349685
-0.000325151
-0.000301175
-0.000277198
-0.000252797
-0.000229115
-0.000205472
-0.000181863
-0.00015809
-0.000134833
-0.000111389
-8.80807e-05
-6.46615e-05
-4.15839e-05
-1.82556e-05
4.87641e-06
2.81462e-05
5.1175e-05
7.44614e-05
9.75277e-05
0.000120764
0.000143812
0.000167108
0.000190163
0.00021341
0.000236507
0.000259813
0.000282836
0.000306094
0.000329218
0.000352442
0.000375347
0.000398578
0.000421604
0.000444513
0.000467159
0.000490251
0.000512816
0.00053498
0.000557173
0.000579762
0.000601011
0.000621756
0.000643137
0.000664065
0.000682206
0.00070054
0.000719891
0.000735833
0.000747495
0.000778894
0.000784388
0.000794272
0.000805931
0.000798138
0.000782395
0.000776175
0.000747043
0.000690714
0.000637267
0.000556019
0.000443961
0.00032498
0.000154446
-1.52304e-05
-0.000187281
-0.000405251
-0.000597095
-0.000781544
-0.000923113
-0.00107736
-0.00117276
-0.00118933
-0.0012149
-0.00123634
-0.00118732
-0.00115121
-0.00111001
-0.00105963
-0.00101561
-0.000958479
-0.000914552
-0.000877538
-0.000830973
-0.00078858
-0.000756622
-0.000722993
-0.000686833
-0.000655227
-0.000627625
-0.000598079
-0.000568734
-0.000542228
-0.000516777
-0.000489945
-0.000464259
-0.000439871
-0.00041541
-0.000390321
-0.000366397
-0.000342721
-0.000318859
-0.000294853
-0.000271651
-0.000248221
-0.000224815
-0.000201396
-0.000178439
-0.000155148
-0.000132049
-0.000108878
-8.59804e-05
-6.27803e-05
-3.98251e-05
-1.67089e-05
6.20054e-06
2.93726e-05
5.23156e-05
7.54693e-05
9.84214e-05
0.000121631
0.000144638
0.000167849
0.000190861
0.000214158
0.000237234
0.000260473
0.000283561
0.000306949
0.000330009
0.000353221
0.000376405
0.000399779
0.000422628
0.00044579
0.000469028
0.000492045
0.000514425
0.000537572
0.000560526
0.000582457
0.000604176
0.000627217
0.000648701
0.000668352
0.000689371
0.000711181
0.000728065
0.000743848
0.000763557
0.000794551
0.000807577
0.000822353
0.000829264
0.000825837
0.000821485
0.000810064
0.000778842
0.00073047
0.000658981
0.000578739
0.000482397
0.000284253
9.10078e-05
-6.17986e-06
-0.000287424
-0.000575405
-0.000699344
-0.000939903
-0.00115134
-0.00124248
-0.00137061
-0.00141126
-0.00132884
-0.00135672
-0.00134921
-0.00123259
-0.0011627
-0.00112224
-0.00107384
-0.000995212
-0.000927772
-0.000892222
-0.000847599
-0.000791511
-0.000751035
-0.000719484
-0.000681881
-0.000644407
-0.000615176
-0.00058716
-0.000556823
-0.000528495
-0.00050387
-0.000478451
-0.00045247
-0.000428072
-0.000405061
-0.000381022
-0.000357202
-0.000334203
-0.000311575
-0.00028821
-0.000265312
-0.000242637
-0.000220028
-0.000196982
-0.000174379
-0.000151662
-0.000129001
-0.000106068
-8.34732e-05
-6.06238e-05
-3.78924e-05
-1.49414e-05
7.76223e-06
3.07562e-05
5.35809e-05
7.66241e-05
9.94766e-05
0.000122613
0.000145546
0.000168715
0.000191726
0.00021499
0.000238025
0.000261332
0.000284491
0.000307834
0.000330951
0.000354401
0.000377646
0.000400979
0.00042416
0.000447722
0.000470897
0.000494089
0.000517323
0.000540848
0.000563625
0.000586512
0.000609701
0.000632704
0.000654437
0.000676707
0.000699308
0.000720355
0.000739587
0.000760241
0.000779843
0.00081548
0.000840399
0.000851638
0.00085283
0.000869304
0.000875814
0.000841811
0.000813959
0.000797468
0.000713521
0.000593887
0.000488598
0.000321138
0.000109841
-0.000143117
-0.00039459
-0.000545982
-0.000838999
-0.00113356
-0.0013575
-0.00142694
-0.00149943
-0.00158917
-0.00156988
-0.00144439
-0.00138349
-0.00132068
-0.00127663
-0.00118022
-0.00107644
-0.0010327
-0.000975046
-0.000896923
-0.000844147
-0.000805366
-0.000756564
-0.000708397
-0.000673337
-0.000640434
-0.00060407
-0.000571742
-0.000545158
-0.00051736
-0.000489253
-0.000464391
-0.000441189
-0.000416498
-0.000392682
-0.000370399
-0.000348133
-0.000325007
-0.000302821
-0.000280939
-0.000258791
-0.000236275
-0.000214385
-0.000192255
-0.000170019
-0.000147594
-0.000125514
-0.000103065
-8.06793e-05
-5.81089e-05
-3.57401e-05
-1.30254e-05
9.54627e-06
3.23384e-05
5.49694e-05
7.7911e-05
0.00010069
0.000123702
0.000146556
0.000169716
0.000192699
0.000215896
0.000238962
0.000262346
0.000285489
0.000308842
0.000332154
0.000355737
0.000378954
0.000402497
0.00042612
0.00044977
0.000472976
0.000496885
0.000520797
0.000544191
0.000567465
0.00059204
0.000615802
0.000638423
0.000662237
0.000687454
0.000709518
0.000730826
0.000755933
0.000779567
0.000795776
0.000845242
0.000865493
0.000883271
0.00090211
0.000914057
0.000911069
0.000905234
0.00089026
0.000839083
0.000768812
0.000672581
0.000508184
0.00036299
0.000168376
-0.000264091
-0.000455033
-0.000518561
-0.000925198
-0.00115524
-0.00142705
-0.00171889
-0.00174768
-0.00162856
-0.00167715
-0.00154448
-0.00144467
-0.00142121
-0.00132253
-0.0012191
-0.00111704
-0.0010499
-0.000990429
-0.000915673
-0.000853822
-0.000805901
-0.000756258
-0.000707392
-0.000666849
-0.000630585
-0.000594556
-0.000560728
-0.000531532
-0.000504067
-0.000476825
-0.000450969
-0.000427567
-0.00040444
-0.000381312
-0.000358899
-0.000337557
-0.000315813
-0.000294104
-0.000272648
-0.000251533
-0.000229896
-0.000208387
-0.000186825
-0.000165334
-0.000143409
-0.000121649
-9.96691e-05
-7.77215e-05
-5.54381e-05
-3.33129e-05
-1.09013e-05
1.14386e-05
3.40591e-05
5.6543e-05
7.93216e-05
0.000101981
0.000124907
0.000147716
0.000170796
0.000193726
0.000216946
0.000240051
0.000263382
0.000286574
0.000310106
0.000333478
0.000357036
0.000380551
0.000404433
0.000428031
0.000451875
0.00047586
0.000500096
0.000523907
0.000548259
0.000572888
0.000597385
0.00062153
0.000646763
0.000671985
0.000696496
0.000721203
0.000747331
0.000772238
0.000795827
0.000820377
0.000874844
0.000893883
0.000923521
0.000954521
0.000958504
0.000960661
0.000987982
0.000969028
0.000887964
0.000849205
0.000788829
0.000580189
0.00037112
0.000211381
-6.86647e-05
-0.000452495
-0.000862618
-0.000823149
-0.000959904
-0.001307
-0.00133982
-0.00164874
-0.00174713
-0.00152675
-0.00160821
-0.00161496
-0.00151574
-0.00129433
-0.00122201
-0.00118884
-0.00106773
-0.000975517
-0.000932947
-0.000873878
-0.000801414
-0.000750557
-0.000710925
-0.000663227
-0.000618018
-0.000584934
-0.000553166
-0.000518723
-0.000489147
-0.000464894
-0.000439336
-0.000413708
-0.000391314
-0.000370328
-0.000347979
-0.000326341
-0.000305995
-0.000285561
-0.000264306
-0.00024368
-0.000223197
-0.000202383
-0.000181137
-0.000160248
-0.000139057
-0.000117678
-9.60215e-05
-7.45324e-05
-5.26594e-05
-3.0753e-05
-8.60017e-06
1.34596e-05
3.5872e-05
5.82319e-05
8.08368e-05
0.00010336
0.000126203
0.000148953
0.00017194
0.000194852
0.00021808
0.000241172
0.0002645
0.000287805
0.000311414
0.000334819
0.000358534
0.000382331
0.000406327
0.000430075
0.0004544
0.000478853
0.000503221
0.00052755
0.000552966
0.000578178
0.000602927
0.000628552
0.000655716
0.000681407
0.00070678
0.000735127
0.000764091
0.000788803
0.000815617
0.000848059
0.000901843
0.000937048
0.000966563
0.000990296
0.00102036
0.00104542
0.00104215
0.00103056
0.0010307
0.000963499
0.000816826
0.000712919
0.000539974
0.000245965
0.000183391
-0.000322571
-0.00111978
-0.000503175
-0.000447705
-0.00102704
-0.000536127
-0.000974742
-0.00120063
-0.00101273
-0.00157924
-0.00169433
-0.00144707
-0.00136304
-0.00125467
-0.00116085
-0.00107804
-0.00100572
-0.00093604
-0.000866381
-0.000807938
-0.000755638
-0.000703584
-0.00065663
-0.000614914
-0.000575788
-0.000540393
-0.000508976
-0.000478952
-0.000451138
-0.000426297
-0.000402822
-0.000379525
-0.000357824
-0.000337236
-0.000316692
-0.000296074
-0.000276258
-0.000256415
-0.000236332
-0.000216097
-0.000196117
-0.000175726
-0.000155175
-0.000134402
-0.000113647
-9.24591e-05
-7.12211e-05
-4.97128e-05
-2.81783e-05
-6.28363e-06
1.56008e-05
3.77708e-05
5.99328e-05
8.24e-05
0.000104835
0.000127541
0.000150197
0.000173152
0.000196062
0.00021921
0.000242306
0.000265738
0.000289087
0.000312653
0.000336258
0.000360231
0.000384028
0.000408134
0.000432479
0.000457101
0.00048147
0.000506535
0.000532001
0.0005574
0.000582819
0.000609688
0.000636634
0.000663104
0.00069079
0.000720484
0.000748912
0.000777337
0.000809059
0.000841428
0.000870393
0.000932667
0.000976033
0.00100948
0.00103744
0.00108271
0.00111975
0.0011163
0.00112691
0.00115628
0.0010728
0.000931743
0.000882637
0.000732108
0.000399238
0.000129947
-0.000237129
-0.000586636
-0.000393406
-0.000275984
-0.000438275
-0.000471946
-0.000594953
-0.000477574
-0.000554355
-0.00106537
-0.0013506
-0.00136609
-0.00143218
-0.00128498
-0.00112623
-0.00108587
-0.00102367
-0.000928255
-0.000863214
-0.000817324
-0.000756524
-0.000694943
-0.000651591
-0.000612671
-0.000568139
-0.000528837
-0.000499232
-0.000470063
-0.000439718
-0.000413897
-0.000391965
-0.000369194
-0.000346709
-0.000326581
-0.000307325
-0.000287168
-0.000267471
-0.000248485
-0.000229309
-0.000209498
-0.00018995
-0.000170308
-0.000150324
-0.000129919
-0.000109594
-8.89168e-05
-6.80143e-05
-4.67962e-05
-2.55745e-05
-3.98231e-06
1.77103e-05
3.9675e-05
6.16543e-05
8.39651e-05
0.000106297
0.000128881
0.000151471
0.000174366
0.000197236
0.000220353
0.000243493
0.00026693
0.000290306
0.000313975
0.000337729
0.00036176
0.000385726
0.000410144
0.000434731
0.000459518
0.00048438
0.00051004
0.000535841
0.000561746
0.000588274
0.000616066
0.000643602
0.000671413
0.00070118
0.000732331
0.000762077
0.000793347
0.00082894
0.000864033
0.000895388
0.000966426
0.00100323
0.00105124
0.00110203
0.00113684
0.00117329
0.00122676
0.0012464
0.0012114
0.00121944
0.0012322
0.00100028
0.000737421
0.00049241
4.69049e-07
-0.000237772
-0.000346408
-0.000509982
-0.000551655
-0.000355412
-0.000470536
-0.000411584
-0.00036114
-0.000399145
-0.000572527
-0.000842936
-0.00120623
-0.00130069
-0.00122598
-0.001178
-0.00109249
-0.000994663
-0.000931858
-0.000877541
-0.000807934
-0.000748056
-0.000700994
-0.000649672
-0.000599958
-0.000561687
-0.000526063
-0.000489024
-0.000457642
-0.00043184
-0.000405618
-0.000380279
-0.000358651
-0.000338431
-0.000317473
-0.000297596
-0.000279032
-0.000260275
-0.000241017
-0.000222318
-0.000203637
-0.000184496
-0.000165015
-0.000145656
-0.000125897
-0.000105809
-8.54307e-05
-6.49844e-05
-4.41119e-05
-2.30611e-05
-1.73017e-06
1.96937e-05
4.14742e-05
6.3344e-05
8.54804e-05
0.000107673
0.000130177
0.000152728
0.000175518
0.000198343
0.000221488
0.000244645
0.000268018
0.000291485
0.000315314
0.000339081
0.000363133
0.000387466
0.000412127
0.000436654
0.000461812
0.000487482
0.000513223
0.000539049
0.000566308
0.000593952
0.000621261
0.000649866
0.00068085
0.000711042
0.000741315
0.000775723
0.000811972
0.000845162
0.000881905
0.000925768
0.000993909
0.00103793
0.00109079
0.00115045
0.00119774
0.00124033
0.00130723
0.00135675
0.0013475
0.00136155
0.00138016
0.00128174
0.000968731
0.000236131
-0.000325961
-0.000353172
-0.000442331
-0.00048653
-0.000437088
-0.000391172
-0.000465492
-0.000382715
-0.000351242
-0.000371836
-0.00039531
-0.00042469
-0.000741951
-0.00114591
-0.00126021
-0.00117152
-0.00104383
-0.00098812
-0.000947931
-0.000874131
-0.000798495
-0.000747186
-0.000700304
-0.000645253
-0.000594706
-0.0005556
-0.000519337
-0.000482287
-0.00044978
-0.000422966
-0.000397341
-0.00037227
-0.000349966
-0.000329861
-0.000309784
-0.000290127
-0.000271567
-0.000253424
-0.000234866
-0.000216421
-0.000198098
-0.000179558
-0.00016055
-0.000141469
-0.000122113
-0.000102448
-8.23812e-05
-6.218e-05
-4.16179e-05
-2.08234e-05
3.0053e-07
2.15496e-05
4.31349e-05
6.48612e-05
8.68673e-05
0.00010897
0.00013137
0.000153847
0.000176584
0.000199404
0.000222501
0.000245648
0.000269076
0.000292606
0.000316417
0.000340301
0.000364556
0.000388967
0.000413698
0.000438626
0.000464112
0.000489833
0.000516001
0.00054269
0.000570226
0.000598104
0.000626783
0.000656633
0.000687699
0.000719251
0.000752401
0.000787926
0.000824942
0.00086231
0.000903071
0.000948507
0.00101555
0.00107658
0.00112756
0.00117883
0.00125383
0.00132578
0.0013708
0.00142817
0.00151056
0.00151744
0.00146272
0.00158884
0.0011843
3.6061e-05
-0.000483668
-0.000441926
-0.000400061
-0.000371283
-0.000415098
-0.000475329
-0.000371692
-0.000360685
-0.000419612
-0.000372553
-0.000263549
-0.000260879
-0.000472928
-0.000952342
-0.0011814
-0.00110466
-0.00105999
-0.00100869
-0.000920654
-0.000853725
-0.000812714
-0.000752908
-0.0006845
-0.000638359
-0.000599394
-0.000550899
-0.000507873
-0.000477461
-0.000447035
-0.000414654
-0.000388478
-0.000366907
-0.000344054
-0.000321879
-0.000302944
-0.000284746
-0.00026559
-0.000247218
-0.000229761
-0.000211853
-0.000193376
-0.000175208
-0.000156898
-0.00013804
-0.000118809
-9.95461e-05
-7.98598e-05
-5.97961e-05
-3.9429e-05
-1.89113e-05
2.01224e-06
2.31628e-05
4.45863e-05
6.61544e-05
8.80597e-05
0.000110108
0.0001324
0.000154803
0.000177518
0.000200329
0.000223357
0.000246515
0.000270013
0.000293552
0.000317337
0.000341388
0.000365797
0.000390183
0.000415043
0.000440418
0.000466027
0.000491704
0.000518513
0.000545954
0.000573298
0.000601536
0.000631989
0.000662422
0.000692805
0.00072659
0.000763055
0.000797534
0.000834533
0.000879173
0.000923492
0.000964069
0.00103711
0.00109443
0.00115695
0.00122096
0.0012928
0.00137466
0.00144429
0.00150803
0.00160746
0.00166617
0.00165458
0.00171836
0.000707398
-0.000306633
-0.000334409
-0.000402534
-0.000411922
-0.00040471
-0.000414854
-0.000410677
-0.000367646
-0.000387443
-0.000355548
-0.000323661
-0.000288541
-0.000291408
-0.000302436
-0.000687832
-0.0011053
-0.00108395
-0.00106085
-0.000985146
-0.000913831
-0.000862144
-0.000804769
-0.00074283
-0.000687978
-0.000638012
-0.000590298
-0.000546865
-0.000507564
-0.000471708
-0.000439774
-0.000411075
-0.000384496
-0.000360332
-0.000338422
-0.000317782
-0.000297982
-0.000279279
-0.000261207
-0.000243296
-0.000225479
-0.00020786
-0.000190069
-0.00017204
-0.000153763
-0.000135297
-0.000116426
-9.72564e-05
-7.77411e-05
-5.79572e-05
-3.77779e-05
-1.73499e-05
3.4134e-06
2.4401e-05
4.57189e-05
6.72221e-05
8.90203e-05
0.000110979
0.00013322
0.000155605
0.000178251
0.000201021
0.000224073
0.000247252
0.000270686
0.000294269
0.000318185
0.000342236
0.000366605
0.000391247
0.000416311
0.000441565
0.00046736
0.000493672
0.000520506
0.000547767
0.000576087
0.000605212
0.000635044
0.000666049
0.000698919
0.000732795
0.000768134
0.000806187
0.000846746
0.000888866
0.000934617
0.000984446
0.00105252
0.00110484
0.00117689
0.00125714
0.00132123
0.00139413
0.00150085
0.00160355
0.00166843
0.00173359
0.00186838
0.0015772
0.000297467
-0.000408758
-0.000288794
-0.000370359
-0.000429797
-0.000419795
-0.000374263
-0.00036008
-0.000408911
-0.000392797
-0.000309202
-0.00030918
-0.000322506
-0.000258541
-0.000218002
-0.000500284
-0.000978867
-0.00110524
-0.00101742
-0.000954084
-0.000928997
-0.000870966
-0.000788192
-0.000734347
-0.000695225
-0.000637945
-0.000581274
-0.000543758
-0.000508759
-0.000467946
-0.000433958
-0.000408587
-0.000382404
-0.000355903
-0.000334249
-0.000315089
-0.000294893
-0.000275507
-0.000258093
-0.000240729
-0.000222659
-0.000205069
-0.000187777
-0.000169937
-0.000151632
-0.000133375
-0.000114793
-9.57097e-05
-7.62737e-05
-5.66732e-05
-3.66464e-05
-1.62773e-05
4.39145e-06
2.5262e-05
4.65007e-05
6.79636e-05
8.96896e-05
0.000111584
0.000133793
0.00015616
0.000178759
0.000201508
0.000224572
0.000247752
0.000271157
0.000294782
0.00031876
0.000342806
0.000367191
0.000391994
0.000417139
0.000442364
0.000468345
0.000494989
0.00052181
0.000549115
0.000578069
0.000607589
0.000637149
0.000668777
0.000703061
0.000736836
0.000771835
0.000812437
0.000855003
0.00089531
0.000942447
0.000999347
0.00105737
0.00112376
0.00118658
0.00125548
0.00134301
0.00143307
0.00151665
0.00161163
0.00171224
0.00185142
0.00200945
0.00144331
0.000341694
-0.000373088
-0.000427677
-0.00038124
-0.000359073
-0.000387075
-0.000406804
-0.000398279
-0.000365455
-0.000338925
-0.000357249
-0.000320782
-0.000281056
-0.000248388
-0.000197717
-0.000443465
-0.000842744
-0.00105015
-0.00102364
-0.000983165
-0.000909946
-0.000847045
-0.00080284
-0.00074469
-0.000680116
-0.000631967
-0.000590275
-0.000542884
-0.000500302
-0.000467728
-0.000436464
-0.000404901
-0.000378452
-0.000355986
-0.000333443
-0.000311918
-0.000292976
-0.000274882
-0.000256432
-0.000238634
-0.000221504
-0.000204108
-0.000186324
-0.000168655
-0.000150798
-0.000132474
-0.00011378
-9.49188e-05
-7.56452e-05
-5.59884e-05
-3.59953e-05
-1.57662e-05
4.85172e-06
2.57391e-05
4.69228e-05
6.83115e-05
9.0023e-05
0.000111927
0.000134088
0.000156412
0.000179029
0.000201797
0.000224799
0.000247969
0.000271458
0.000295071
0.000318952
0.00034311
0.000367636
0.000392281
0.00041739
0.000443005
0.000468987
0.000495232
0.000522484
0.000550452
0.000578728
0.00060799
0.000639188
0.000670919
0.000703311
0.000738711
0.000776701
0.000814426
0.00085525
0.000902445
0.000950778
0.00099907
0.00105737
0.00112376
0.00118658
0.00125548
0.00134301
0.00143307
0.00151665
0.00161163
0.00171224
0.00185142
0.00200945
0.00144331
0.000341694
-0.000373088
-0.000427677
-0.00038124
-0.000359073
-0.000387075
-0.000406804
-0.000398279
-0.000365455
-0.000338925
-0.000357249
-0.000320782
-0.000281056
-0.000248388
-0.000197717
-0.000443465
-0.000842744
-0.00105015
-0.00102364
-0.000983165
-0.000909946
-0.000847045
-0.00080284
-0.00074469
-0.000680116
-0.000631967
-0.000590275
-0.000542884
-0.000500302
-0.000467728
-0.000436464
-0.000404901
-0.000378452
-0.000355986
-0.000333443
-0.000311918
-0.000292976
-0.000274882
-0.000256432
-0.000238634
-0.000221504
-0.000204108
-0.000186324
-0.000168655
-0.000150798
-0.000132474
-0.00011378
-9.49188e-05
-7.56452e-05
-5.59884e-05
-3.59953e-05
-1.57662e-05
4.85172e-06
2.57391e-05
4.69228e-05
6.83115e-05
9.0023e-05
0.000111927
0.000134088
0.000156412
0.000179029
0.000201797
0.000224799
0.000247969
0.000271458
0.000295071
0.000318952
0.00034311
0.000367636
0.000392281
0.00041739
0.000443005
0.000468987
0.000495232
0.000522484
0.000550452
0.000578728
0.00060799
0.000639188
0.000670919
0.000703311
0.000738711
0.000776701
0.000814426
0.00085525
0.000902445
0.000950778
0.00099907
0.00105252
0.00110484
0.00117689
0.00125714
0.00132123
0.00139413
0.00150085
0.00160355
0.00166843
0.00173359
0.00186838
0.0015772
0.000297467
-0.000408758
-0.000288794
-0.000370359
-0.000429797
-0.000419795
-0.000374263
-0.00036008
-0.000408911
-0.000392797
-0.000309202
-0.00030918
-0.000322506
-0.000258541
-0.000218002
-0.000500284
-0.000978867
-0.00110524
-0.00101742
-0.000954084
-0.000928997
-0.000870966
-0.000788192
-0.000734347
-0.000695225
-0.000637945
-0.000581274
-0.000543758
-0.000508759
-0.000467946
-0.000433958
-0.000408587
-0.000382404
-0.000355903
-0.000334249
-0.000315089
-0.000294893
-0.000275507
-0.000258093
-0.000240729
-0.000222659
-0.000205069
-0.000187777
-0.000169937
-0.000151632
-0.000133375
-0.000114793
-9.57097e-05
-7.62737e-05
-5.66732e-05
-3.66464e-05
-1.62773e-05
4.39145e-06
2.5262e-05
4.65007e-05
6.79636e-05
8.96896e-05
0.000111584
0.000133793
0.00015616
0.000178759
0.000201508
0.000224572
0.000247752
0.000271157
0.000294782
0.00031876
0.000342806
0.000367191
0.000391994
0.000417139
0.000442364
0.000468345