# vtk DataFile Version 3.0
fluid_state
ASCII
DATASET RECTILINEAR_GRID
DIMENSIONS 100 40 1
X_COORDINATES 100 float
0.5 1.5 2.5 3.5 4.5 5.5 6.5 7.5 8.5 9.5 10.5 11.5 12.5 13.5 14.5 15.5 16.5 17.5 18.5 19.5 20.5 21.5 22.5 23.5 24.5 25.5 26.5 27.5 28.5 29.5 30.5 31.5 32.5 33.5 34.5 35.5 36.5 37.5 38.5 39.5 40.5 41.5 42.5 43.5 44.5 45.5 46.5 47.5 48.5 49.5 50.5 51.5 52.5 53.5 54.5 55.5 56.5 57.5 58.5 59.5 60.5 61.5 62.5 63.5 64.5 65.5 66.5 67.5 68.5 69.5 70.5 71.5 72.5 73.5 74.5 75.5 76.5 77.5 78.5 79.5 80.5 81.5 82.5 83.5 84.5 85.5 86.5 87.5 88.5 89.5 90.5 91.5 92.5 93.5 94.5 95.5 96.5 97.5 98.5 99.5 
Y_COORDINATES 40 float
0.5 1.5 2.5 3.5 4.5 5.5 6.5 7.5 8.5 9.5 10.5 11.5 12.5 13.5 14.5 15.5 16.5 17.5 18.5 19.5 20.5 21.5 22.5 23.5 24.5 25.5 26.5 27.5 28.5 29.5 30.5 31.5 32.5 33.5 34.5 35.5 36.5 37.5 38.5 39.5 
Z_COORDINATES 1 float
0
POINT_DATA 4000
SCALARS density_difference float 1
LOOKUP_TABLE default
0.000841239
0.000884378
0.000925653
0.000965222
0.000998465
0.00102378
0.0010431
0.00105914
0.0010655
0.0010545
0.00103995
0.00102047
0.000976204
0.000922992
0.00086907
0.000794755
0.000712642
0.000630693
0.000537466
0.000447661
0.000364432
0.000273232
0.000195757
0.0001326
6.40878e-05
8.53785e-06
-3.05412e-05
-7.37429e-05
-0.000108918
-0.000131208
-0.000155869
-0.000179382
-0.00019538
-0.000209944
-0.000227046
-0.000243665
-0.000257144
-0.000271209
-0.00028841
-0.000305407
-0.000320639
-0.000337621
-0.000356757
-0.000375118
-0.000392729
-0.000411907
-0.000431688
-0.000450384
-0.000468696
-0.000487622
-0.000505896
-0.00052293
-0.000539354
-0.000555294
-0.000569779
-0.000582828
-0.000594713
-0.000605212
-0.000613776
-0.000620595
-0.000625641
-0.000628684
-0.000629469
-0.000628148
-0.000624564
-0.000618604
-0.000610149
-0.000599279
-0.000585858
-0.00056988
-0.000551264
-0.000530081
-0.000506289
-0.000479921
-0.000450915
-0.000419423
-0.000385485
-0.000349097
-0.000310268
-0.000269316
-0.000226244
-0.000180966
-0.000133728
-8.49945e-05
-3.44956e-05
1.78141e-05
7.11932e-05
0.000125331
0.000181024
0.000237747
0.000294168
0.00035092
0.000409097
0.000466589
0.000522299
0.000578717
0.000635583
0.000688832
0.00073989
0.000792002
0.000833088
0.000876112
0.000918022
0.000955228
0.00098565
0.00100853
0.00102911
0.00104533
0.00104295
0.0010304
0.00102531
0.000998214
0.00094504
0.000902075
0.000852522
0.000771444
0.000689646
0.000617918
0.000531282
0.000436792
0.000359298
0.000279755
0.000199957
0.000141057
8.13057e-05
1.90776e-05
-1.59636e-05
-4.86525e-05
-9.2895e-05
-0.000119615
-0.000134446
-0.000159171
-0.000183589
-0.000198108
-0.000210802
-0.000230237
-0.000249016
-0.00026274
-0.000277649
-0.000297403
-0.000315723
-0.000331937
-0.000350114
-0.000370744
-0.000389716
-0.00040811
-0.000427761
-0.000448021
-0.000466645
-0.000485058
-0.000503581
-0.000521507
-0.000537772
-0.000553522
-0.000568306
-0.000581752
-0.000593372
-0.000603898
-0.000612642
-0.00061958
-0.000624411
-0.00062756
-0.00062838
-0.00062707
-0.00062335
-0.000617486
-0.000608973
-0.000598112
-0.000584612
-0.000568695
-0.000549999
-0.000528879
-0.000505031
-0.000478699
-0.000449666
-0.000418304
-0.000384288
-0.000347954
-0.000309221
-0.000268422
-0.000225205
-0.000180105
-0.000133129
-8.44416e-05
-3.37554e-05
1.80469e-05
7.10845e-05
0.000125477
0.000181149
0.000236805
0.000293168
0.000350523
0.000407838
0.000463783
0.000520335
0.000577072
0.000631538
0.000683644
0.000736415
0.000787135
0.000827716
0.000873963
0.000913437
0.000945409
0.000976999
0.00100442
0.00102135
0.00102693
0.00102988
0.00102875
0.00100583
0.000968283
0.000940219
0.000890678
0.000815956
0.000753097
0.000681564
0.000589747
0.000509859
0.000427248
0.000338868
0.000270643
0.000200002
0.00012621
8.00375e-05
3.50622e-05
-1.738e-05
-4.95997e-05
-7.37185e-05
-0.00010587
-0.000131109
-0.000148384
-0.000165818
-0.000187267
-0.000205102
-0.000219222
-0.000235771
-0.000255855
-0.000272582
-0.000288615
-0.000307596
-0.000328032
-0.000345951
-0.000364795
-0.000385295
-0.000405758
-0.000424573
-0.000444405
-0.000464316
-0.000483442
-0.000501291
-0.000519432
-0.000536437
-0.000552285
-0.00056672
-0.000580526
-0.00059243
-0.000602883
-0.000611503
-0.000618717
-0.000623572
-0.000626656
-0.000627442
-0.000626287
-0.000622487
-0.000616602
-0.000608072
-0.000597289
-0.000583686
-0.000567788
-0.000549083
-0.000528007
-0.000504061
-0.000477797
-0.000448773
-0.00041743
-0.000383341
-0.000347155
-0.00030844
-0.000267612
-0.0002244
-0.000179572
-0.000132537
-8.37702e-05
-3.33135e-05
1.81226e-05
7.14665e-05
0.00012585
0.000180836
0.000236282
0.000293377
0.000350131
0.000406181
0.000462744
0.000520219
0.000574825
0.000628043
0.000682356
0.000734943
0.000781542
0.000828577
0.000870854
0.000909031
0.000944782
0.00097548
0.00099923
0.00101617
0.00102234
0.00102659
0.00102141
0.000991301
0.00096028
0.000932098
0.000867802
0.000794265
0.000733547
0.000656246
0.000558637
0.000473509
0.000398355
0.00031036
0.000233206
0.000173882
0.000106251
5.49981e-05
2.31211e-05
-2.29815e-05
-6.17503e-05
-7.57177e-05
-9.95464e-05
-0.000128638
-0.000146408
-0.000158435
-0.000177096
-0.000197682
-0.0002137
-0.000227362
-0.000246461
-0.000266149
-0.000283478
-0.000300639
-0.000321456
-0.000341621
-0.000360828
-0.000380351
-0.000401757
-0.000421838
-0.000441518
-0.000461105
-0.000481152
-0.000499479
-0.000517386
-0.000534443
-0.000550914
-0.000565386
-0.000579075
-0.000591137
-0.000601899
-0.000610401
-0.000617616
-0.000622578
-0.000625768
-0.000626432
-0.000625328
-0.000621548
-0.00061569
-0.000607075
-0.000596339
-0.000582705
-0.000566834
-0.000548071
-0.00052702
-0.000503051
-0.000476846
-0.000447755
-0.000416433
-0.000382387
-0.000346268
-0.000307438
-0.000266698
-0.00022363
-0.000178778
-0.000131594
-8.31199e-05
-3.28316e-05
1.88648e-05
7.22188e-05
0.000125963
0.000181053
0.000237048
0.000293556
0.000349441
0.000406433
0.000463382
0.000519071
0.000573449
0.000628796
0.000681942
0.00073177
0.000780408
0.000830074
0.000869491
0.00091103
0.000949669
0.000976563
0.000996573
0.00101751
0.0010299
0.00102515
0.00100648
0.000993136
0.000967981
0.000901253
0.000840333
0.000795382
0.000698348
0.000599114
0.000527361
0.000430732
0.000334384
0.000263361
0.000176772
0.000114172
7.56727e-05
1.52598e-05
-3.005e-05
-4.04615e-05
-6.90709e-05
-0.000101625
-0.000115583
-0.000124476
-0.000143677
-0.000164253
-0.000176173
-0.000186943
-0.000207247
-0.000225894
-0.000239881
-0.000256306
-0.000278177
-0.000297029
-0.000314813
-0.000334951
-0.00035719
-0.00037674
-0.000396822
-0.000417836
-0.000439064
-0.000458181
-0.000477927
-0.000497126
-0.000515626
-0.000532258
-0.000548881
-0.000563867
-0.000577689
-0.000589506
-0.000600515
-0.000609212
-0.000616408
-0.000621262
-0.000624641
-0.000625313
-0.000624174
-0.00062035
-0.0006146
-0.000605917
-0.000595172
-0.00058152
-0.0005657
-0.000546854
-0.000525833
-0.000501859
-0.000475666
-0.00044651
-0.000415271
-0.000381216
-0.000345069
-0.000306232
-0.000265634
-0.000222497
-0.000177587
-0.000130526
-8.22122e-05
-3.16967e-05
2.0006e-05
7.30112e-05
0.000126748
0.000182323
0.000238018
0.000293939
0.000350375
0.000408017
0.000463864
0.00051912
0.000575214
0.000630649
0.000681461
0.000732252
0.000783823
0.000831408
0.000877693
0.000918879
0.000950385
0.000982076
0.00100931
0.00102332
0.00103107
0.00103109
0.00101391
0.00099481
0.000955021
0.000888859
0.000833907
0.000760219
0.000652954
0.000557803
0.000467126
0.000364571
0.000255139
0.000180078
0.000108293
3.54373e-05
-5.70588e-06
-3.76456e-05
-8.21611e-05
-9.43969e-05
-0.000102063
-0.000125623
-0.000137331
-0.000141399
-0.000151508
-0.00016471
-0.000178525
-0.000188683
-0.000201987
-0.000218897
-0.000236541
-0.000251909
-0.000270346
-0.000290369
-0.000310618
-0.000329552
-0.000350841
-0.000372094
-0.000393215
-0.000413348
-0.000434852
-0.000455171
-0.000475112
-0.00049391
-0.000513011
-0.000530193
-0.000546736
-0.00056166
-0.000575961
-0.000587905
-0.000598842
-0.000607598
-0.000615054
-0.000619858
-0.000623228
-0.000623947
-0.000622914
-0.000619006
-0.000613279
-0.000604598
-0.000593897
-0.000580172
-0.000564372
-0.000545511
-0.000524527
-0.000500482
-0.000474304
-0.000445161
-0.000413953
-0.0003798
-0.000343702
-0.000304933
-0.000264297
-0.000221032
-0.000176291
-0.000129299
-8.07595e-05
-3.01916e-05
2.11325e-05
7.43036e-05
0.000128524
0.000183766
0.000238979
0.000295786
0.000352691
0.00040915
0.000465145
0.000522504
0.000577942
0.000631327
0.000684729
0.000738244
0.000786011
0.000840137
0.000887728
0.000925909
0.000959257
0.000996056
0.00102264
0.00103339
0.00103944
0.0010437
0.00103275
0.0009916
0.000934611
0.000902704
0.000826354
0.000688686
0.000614864
0.000528202
0.000371766
0.000265885
0.00017656
6.78843e-05
9.78008e-06
-5.07827e-05
-0.000122616
-0.000122641
-0.000123665
-0.000166855
-0.00017133
-0.000153135
-0.00015585
-0.000170388
-0.00017441
-0.00016844
-0.000178188
-0.000194909
-0.000203792
-0.000211945
-0.000230728
-0.000249499
-0.000264952
-0.000282263
-0.000304777
-0.000325083
-0.000344787
-0.000365845
-0.000388792
-0.000409267
-0.000430111
-0.000450992
-0.000472016
-0.000490738
-0.000509714
-0.000527477
-0.000544513
-0.000559279
-0.000573695
-0.000586003
-0.0005971
-0.000605744
-0.000613362
-0.000618317
-0.000621711
-0.000622373
-0.000621463
-0.000617571
-0.000611837
-0.000603131
-0.000592495
-0.000578727
-0.000562934
-0.00054406
-0.00052309
-0.000498993
-0.000472853
-0.000443685
-0.000412449
-0.000378278
-0.000342243
-0.000303394
-0.000262708
-0.000219501
-0.000174794
-0.000127608
-7.90587e-05
-2.86393e-05
2.28218e-05
7.63323e-05
0.000130396
0.000185496
0.000241264
0.000298462
0.000354887
0.000411575
0.000468833
0.000526241
0.000580874
0.000635734
0.000691085
0.000743415
0.000790828
0.000853051
0.000894107
0.00093772
0.000982247
0.00101073
0.00102984
0.00105753
0.00106793
0.00105255
0.00103934
0.00100971
0.000950672
0.000886757
0.000784245
0.000679955
0.000577267
0.000428669
0.000295207
0.000172617
6.72695e-05
-5.459e-05
-0.000135733
-0.000164226
-0.00020069
-0.000239076
-0.000226687
-0.000223911
-0.00022104
-0.000207261
-0.000202673
-0.000191396
-0.00018775
-0.00019012
-0.000189807
-0.000192182
-0.000203821
-0.000215336
-0.000226509
-0.000241194
-0.000260606
-0.000278247
-0.000296972
-0.000317677
-0.00034002
-0.000360368
-0.000382142
-0.000404094
-0.000426107
-0.000446315
-0.000467442
-0.000487312
-0.000506594
-0.000524045
-0.000541537
-0.00055688
-0.000571295
-0.000583561
-0.000595039
-0.000603873
-0.000611453
-0.000616461
-0.000620069
-0.000620746
-0.000619824
-0.000615979
-0.000610337
-0.000601592
-0.000590958
-0.000577207
-0.000561451
-0.00054252
-0.000521551
-0.000497465
-0.000471332
-0.000442085
-0.000410862
-0.000376718
-0.000340633
-0.000301676
-0.000261063
-0.000217868
-0.000172972
-0.000125702
-7.73383e-05
-2.67526e-05
2.51185e-05
7.85052e-05
0.000132345
0.00018816
0.000244446
0.000301002
0.000357679
0.000416121
0.000473321
0.000529476
0.000586283
0.000643868
0.000696905
0.000748729
0.000802699
0.000863592
0.000909776
0.000957944
0.00099862
0.00102832
0.00105739
0.00108367
0.00108864
0.00107838
0.00105904
0.00102975
0.000979229
0.000861198
0.000747926
0.000703694
0.000515211
0.000318189
0.000246841
7.45845e-05
-8.57331e-05
-0.000160665
-0.000271775
-0.000322513
-0.000283731
-0.00033183
-0.000355165
-0.00028714
-0.00026462
-0.000266566
-0.000253391
-0.00022097
-0.000203803
-0.000207651
-0.000205356
-0.00019711
-0.000203118
-0.000215843
-0.0002255
-0.000235807
-0.000254062
-0.00027299
-0.000290997
-0.000310243
-0.000333203
-0.000354692
-0.000376109
-0.000397863
-0.000420885
-0.000441769
-0.000462724
-0.000482889
-0.000502954
-0.000520673
-0.000538148
-0.000553865
-0.000568714
-0.000581045
-0.000592601
-0.000601705
-0.000609466
-0.000614479
-0.000618183
-0.000618995
-0.000618127
-0.000614279
-0.000608705
-0.000599994
-0.000589372
-0.000575617
-0.00055988
-0.000540937
-0.000519978
-0.00049587
-0.000469711
-0.000440452
-0.000409243
-0.000375024
-0.000338888
-0.000299957
-0.000259311
-0.000215945
-0.000171031
-0.000123815
-7.52411e-05
-2.43919e-05
2.73794e-05
8.08356e-05
0.000135247
0.00019129
0.000247352
0.000304503
0.000362209
0.000420554
0.000477745
0.000535683
0.000593685
0.000650532
0.000704899
0.000760345
0.000814403
0.000877549
0.000933431
0.000977781
0.00101256
0.00105923
0.00109755
0.00110198
0.00111007
0.00113243
0.00109904
0.00103311
0.000991184
0.000902501
0.000769679
0.000614105
0.000450702
0.000368041
0.000172905
-4.97222e-05
-0.000218794
-0.000280371
-0.000359465
-0.000452026
-0.000472689
-0.000403311
-0.000387025
-0.000369309
-0.000359587
-0.000317151
-0.000268327
-0.000259484
-0.000244892
-0.000216494
-0.000208266
-0.000212347
-0.000210638
-0.000210104
-0.000222194
-0.000236194
-0.000248387
-0.000264036
-0.000285424
-0.000305096
-0.000325051
-0.0003471
-0.000370769
-0.000392065
-0.000414209
-0.000436428
-0.000458402
-0.000478164
-0.00049834
-0.000517058
-0.000534845
-0.00055042
-0.000565626
-0.000578478
-0.000590082
-0.000599215
-0.000607263
-0.000612483
-0.000616178
-0.000617067
-0.000616356
-0.000612563
-0.000606977
-0.000598327
-0.000587766
-0.000574002
-0.000558253
-0.000539342
-0.000518389
-0.000494235
-0.000468064
-0.000438822
-0.000407564
-0.000373267
-0.000337142
-0.000298199
-0.000257407
-0.000213957
-0.000169097
-0.000121743
-7.28632e-05
-2.20118e-05
2.97131e-05
8.36736e-05
0.000138532
0.000194337
0.000250676
0.000309071
0.000367061
0.000424856
0.000483559
0.000543704
0.000600911
0.000657589
0.00071657
0.000774086
0.000824662
0.000897807
0.000949861
0.000998385
0.0010462
0.00108968
0.00111944
0.00114418
0.00116521
0.00116052
0.00113226
0.00109282
0.00101408
0.000935791
0.000822928
0.000542182
0.000433766
0.000410591
0.000115004
-3.18921e-05
-0.000236623
-0.000483709
-0.000546225
-0.000497077
-0.000564028
-0.000484214
-0.000437017
-0.000466234
-0.0004173
-0.000355249
-0.000309098
-0.000286757
-0.000265438
-0.000236893
-0.000221656
-0.000217389
-0.000214169
-0.000212963
-0.000220136
-0.000231382
-0.000244187
-0.000258731
-0.000277863
-0.000298056
-0.000318863
-0.000340035
-0.000363423
-0.000386025
-0.000408554
-0.000430447
-0.000452961
-0.000473675
-0.00049393
-0.000512738
-0.000531113
-0.000547164
-0.000562386
-0.000575478
-0.000587456
-0.000596782
-0.000604866
-0.000610297
-0.000614166
-0.000615129
-0.000614459
-0.000610792
-0.000605265
-0.000596645
-0.0005861
-0.000572387
-0.000556649
-0.000537739
-0.000516762
-0.000492625
-0.000466447
-0.000437154
-0.000405843
-0.000371571
-0.00033539
-0.000296311
-0.000255486
-0.000212067
-0.000166994
-0.000119426
-7.0613e-05
-1.96558e-05
3.26028e-05
8.67168e-05
0.000141418
0.000197866
0.000255111
0.000313299
0.000371451
0.000431063
0.000490641
0.000550047
0.000609017
0.000669078
0.000727679
0.000784817
0.000841267
0.000917449
0.000967262
0.00102503
0.00108237
0.0011173
0.00114984
0.00120304
0.0012191
0.00118462
0.00118972
0.00118751
0.00105628
0.000936013
0.00088242
0.000712019
0.000453928
0.00015438
0.000193024
3.58346e-05
-0.000284959
-0.000323039
-0.000552759
-0.000601588
-0.000445462
-0.000552969
-0.000594624
-0.000544721
-0.00041388
-0.000383146
-0.000377151
-0.000309672
-0.000264847
-0.00025957
-0.000243598
-0.000218294
-0.000213646
-0.000219618
-0.00022034
-0.000224162
-0.000239573
-0.000255961
-0.000270744
-0.000289441
-0.000312855
-0.000334286
-0.000355756
-0.000379023
-0.000403186
-0.000424949
-0.000447003
-0.000468729
-0.000489747
-0.000508467
-0.000526979
-0.000543764
-0.00055926
-0.000572383
-0.000584613
-0.000594343
-0.000602501
-0.000608025
-0.00061208
-0.000613227
-0.000612567
-0.000608991
-0.000603556
-0.000595002
-0.000584446
-0.000570795
-0.000555076
-0.00053617
-0.000515171
-0.000491065
-0.000464847
-0.00043552
-0.000404188
-0.000369904
-0.000333616
-0.000294484
-0.000253639
-0.000210117
-0.000164844
-0.000117236
-6.83564e-05
-1.70802e-05
3.54759e-05
8.95802e-05
0.000144581
0.000201764
0.000259321
0.000317483
0.000376639
0.000437624
0.000497246
0.000556944
0.000618632
0.000680639
0.000738371
0.000797578
0.000860198
0.000934466
0.000995947
0.00105266
0.00110384
0.0011579
0.00120661
0.0012354
0.00125607
0.00128442
0.00126968
0.00119482
0.00114886
0.00107716
0.000904146
0.000896163
0.000493576
-0.000208395
0.000174623
0.000136346
-0.000350323
4.387e-05
-0.000295689
-0.000402317
-0.000164419
-0.0005944
-0.000697395
-0.000517418
-0.00047886
-0.000428778
-0.000373333
-0.000330456
-0.000300055
-0.000269808
-0.000243707
-0.00022952
-0.000221777
-0.000216462
-0.000218084
-0.000224791
-0.00023471
-0.000248345
-0.000265992
-0.000284356
-0.000304795
-0.000327108
-0.000350387
-0.000372811
-0.000396298
-0.000419526
-0.000442256
-0.000463558
-0.000484884
-0.000504601
-0.000523255
-0.000540029
-0.000555973
-0.000569592
-0.000581829
-0.000591722
-0.000600178
-0.000605914
-0.000609971
-0.000611286
-0.000610764
-0.000607277
-0.000601843
-0.000593398
-0.000582884
-0.000569266
-0.000553526
-0.000534677
-0.000513675
-0.000489551
-0.000463284
-0.000433996
-0.000402615
-0.000368241
-0.000331908
-0.000292812
-0.0002518
-0.000208111
-0.000162869
-0.000115203
-6.58976e-05
-1.4487e-05
3.79346e-05
9.25179e-05
0.000148278
0.000205275
0.000262892
0.000322559
0.000382479
0.000442678
0.000503688
0.000566422
0.000627734
0.000689006
0.000751833
0.000814712
0.000874061
0.0009538
0.00102148
0.00107975
0.00113222
0.00119799
0.0012556
0.00128049
0.00131629
0.00137023
0.00133808
0.0012627
0.00128157
0.00121773
0.000976279
0.000744796
0.000338538
-7.03025e-05
5.97508e-06
9.58486e-05
-4.62164e-05
-7.1381e-05
-0.000158029
-4.68266e-05
-3.46534e-05
-0.000356253
-0.000506972
-0.00050177
-0.000560148
-0.000463853
-0.000364228
-0.000352265
-0.000325609
-0.00027275
-0.000247556
-0.000241956
-0.000226666
-0.000212835
-0.000216631
-0.000225462
-0.000230921
-0.000241431
-0.00026065
-0.000279888
-0.000298305
-0.000319984
-0.000344596
-0.000367485
-0.000390246
-0.000413853
-0.000437508
-0.00045906
-0.000480279
-0.000500566
-0.000519726
-0.000536662
-0.000552723
-0.000566785
-0.000579248
-0.000589273
-0.000597871
-0.000603877
-0.000608016
-0.00060944
-0.000609011
-0.000605664
-0.000600245
-0.000591881
-0.0005814
-0.00056784
-0.000552086
-0.000533283
-0.000512258
-0.000488144
-0.000461851
-0.000432564
-0.00040111
-0.000366724
-0.000330347
-0.000291178
-0.000250048
-0.000206341
-0.000160985
-0.000113123
-6.36725e-05
-1.22048e-05
4.05262e-05
9.54757e-05
0.000151396
0.000208635
0.000266963
0.000327199
0.000387365
0.000448306
0.000510725
0.000574357
0.000636195
0.00069919
0.00076484
0.000829287
0.000889404
0.000975187
0.00103675
0.00110579
0.00117457
0.00123038
0.00128647
0.00135316
0.00139293
0.00139669
0.00143313
0.00147516
0.00134925
0.00119087
0.000961172
0.000438046
0.000139097
1.50776e-05
-9.86471e-05
-0.000127071
2.37616e-05
-6.38749e-05
-4.8096e-07
4.17092e-05
7.49618e-07
-0.000107713
-0.000247794
-0.000442534
-0.000481835
-0.000440843
-0.000427875
-0.000371419
-0.000310598
-0.000285562
-0.000266805
-0.000238492
-0.000223402
-0.000221252
-0.000217382
-0.000217091
-0.000227964
-0.000241349
-0.000254261
-0.000272061
-0.000294419
-0.000315713
-0.000337546
-0.000361611
-0.00038619
-0.000409014
-0.000432097
-0.000454953
-0.000476742
-0.000496656
-0.000516051
-0.000533784
-0.000549938
-0.000563981
-0.00057677
-0.000587174
-0.000595758
-0.000601885
-0.00060623
-0.000607814
-0.000607368
-0.000604145
-0.000598815
-0.000590517
-0.000580014
-0.000566537
-0.000550802
-0.000532012
-0.000510948
-0.000486888
-0.000460568
-0.000431236
-0.000399735
-0.000365394
-0.000328912
-0.000289632
-0.000248499
-0.000204788
-0.000159151
-0.000111168
-6.18102e-05
-1.00888e-05
4.31967e-05
9.80642e-05
0.000153928
0.000212141
0.000271132
0.000330758
0.000391663
0.000454866
0.000517185
0.000579827
0.00064515
0.000711488
0.000774524
0.00083992
0.000909346
0.00099206
0.00105785
0.00112988
0.00120504
0.00126811
0.00132577
0.00140276
0.00146553
0.00148102
0.00151477
0.00156917
0.00153746
0.00128536
0.000603764
5.46621e-05
9.89294e-06
-6.00043e-05
-8.91077e-05
-4.07293e-05
7.62461e-06
-5.01909e-05
1.40026e-05
4.12461e-05
2.61331e-05
1.59532e-05
1.42278e-05
-0.000169257
-0.000421265
-0.000495214
-0.0004372
-0.00035061
-0.000318376
-0.000305185
-0.000270001
-0.000236505
-0.000226373
-0.000223225
-0.000216172
-0.000214862
-0.000224674
-0.000237638
-0.0002506
-0.000267463
-0.000289072
-0.000311061
-0.000333137
-0.000356687
-0.000381395
-0.000404989
-0.000428159
-0.000450975
-0.000473172
-0.000493579
-0.000513013
-0.000530932
-0.000547417
-0.000561722
-0.000574557
-0.000585175
-0.00059394
-0.000600207
-0.000604597
-0.00060634
-0.000605967
-0.000602826
-0.00059752
-0.000589314
-0.000578826
-0.000565398
-0.000549653
-0.000530906
-0.000509831
-0.000485782
-0.000459415
-0.000430106
-0.00039857
-0.00036418
-0.000327632
-0.000288372
-0.000247136
-0.000203296
-0.000157618
-0.000109612
-5.99755e-05
-8.0797e-06
4.51882e-05
0.000100316
0.00015674
0.000215027
0.000274096
0.000334618
0.000396267
0.000459335
0.000522486
0.000586998
0.000652865
0.000719478
0.00078518
0.000853075
0.000923343
0.00100483
0.00108334
0.00115193
0.0012191
0.00130343
0.0013821
0.00143834
0.00150374
0.00158783
0.00161648
0.00160665
0.00172205
0.00133657
0.000333668
-0.000109008
-7.65547e-05
-2.30377e-05
9.97164e-06
-2.26541e-05
-6.61922e-05
2.17469e-05
3.37e-05
-8.47653e-06
2.84028e-05
0.000111953
0.000129234
-1.90358e-05
-0.000346301
-0.000467776
-0.000396714
-0.00037578
-0.000347608
-0.000290858
-0.000259165
-0.000252912
-0.000234115
-0.000212612
-0.000212904
-0.000220568
-0.000222068
-0.000229653
-0.000248272
-0.000266684
-0.000283658
-0.000305466
-0.000330499
-0.000353546
-0.000376576
-0.000401226
-0.00042553
-0.000447789
-0.000469748
-0.000491032
-0.000510762
-0.000528462
-0.000545141
-0.000559927
-0.000572788
-0.000583415
-0.000592385
-0.000598866
-0.000603235
-0.000605062
-0.000604804
-0.000601752
-0.000596425
-0.000588297
-0.000577851
-0.000564454
-0.000548682
-0.00052999
-0.000508911
-0.000484852
-0.00045845
-0.000429182
-0.000397598
-0.00036315
-0.000326582
-0.000287345
-0.000245963
-0.000202035
-0.000156398
-0.000108307
-5.83474e-05
-6.44324e-06
4.67422e-05
0.000102333
0.000159233
0.000217208
0.0002765
0.000338305
0.000400131
0.000462434
0.000527274
0.000594072
0.000658558
0.000724916
0.000796181
0.000866023
0.00093153
0.00101794
0.00109291
0.00116993
0.00124566
0.00132584
0.00141109
0.00148433
0.00155087
0.00164656
0.00171401
0.00172144
0.00178022
0.000899261
2.61305e-05
-8.14747e-07
-4.58777e-05
-3.35594e-05
-2.18731e-05
-2.17548e-05
-1.48134e-05
2.48135e-05
1.29808e-05
4.03624e-05
7.16815e-05
9.38224e-05
9.51835e-05
0.000101287
-0.000155786
-0.000431152
-0.000404693
-0.000385655
-0.000335904
-0.000293566
-0.000271246
-0.000249534
-0.000229104
-0.000218003
-0.000214007
-0.000214481
-0.000220284
-0.000230519
-0.000244471
-0.000261912
-0.000281964
-0.000303332
-0.000326291
-0.00035028
-0.000374546
-0.000398455
-0.000422366
-0.000445545
-0.000467795
-0.000488736
-0.00050865
-0.000526862
-0.000543537
-0.000558286
-0.000571377
-0.000582224
-0.000591157
-0.000597716
-0.000602221
-0.000604134
-0.000603858
-0.000600888
-0.000595615
-0.000587524
-0.000577063
-0.000563721
-0.000547962
-0.000529279
-0.00050817
-0.00048415
-0.000457738
-0.000428438
-0.000396816
-0.000362414
-0.000325786
-0.000286458
-0.000245081
-0.000201191
-0.000155351
-0.000107152
-5.7316e-05
-5.27862e-06
4.8351e-05
0.000103854
0.000160579
0.000219271
0.000279093
0.000340263
0.000402505
0.000466574
0.000531166
0.000596936
0.000664097
0.000732769
0.000801599
0.000872373
0.00094463
0.00102725
0.00109752
0.00118211
0.00126986
0.00134165
0.00141866
0.00152114
0.00161553
0.00167779
0.00174572
0.00186819
0.00161907
0.000538422
-6.72313e-05
2.42801e-05
-1.38195e-05
-4.82282e-05
-3.82822e-05
7.66996e-06
2.78276e-05
-6.87249e-06
6.39247e-06
7.50528e-05
8.49533e-05
7.4193e-05
0.000114458
0.000162962
-1.98543e-05
-0.000355564
-0.000433529
-0.000361131
-0.000318975
-0.000311498
-0.000281463
-0.000238426
-0.000224762
-0.000225821
-0.000214959
-0.000208022
-0.000218813
-0.000232343
-0.000242014
-0.00025789
-0.000280757
-0.000302392
-0.000323426
-0.000347731
-0.000373227
-0.000396788
-0.000420142
-0.000443892
-0.000466543
-0.000487242
-0.000507146
-0.000525739
-0.000542495
-0.000557176
-0.000570379
-0.000581414
-0.000590343
-0.000596924
-0.000601516
-0.000603509
-0.000603218
-0.000600291
-0.000595061
-0.000587001
-0.000576526
-0.000563219
-0.00054747
-0.000528793
-0.000507667
-0.000483673
-0.000457248
-0.00042793
-0.000396292
-0.00036191
-0.000325233
-0.000285863
-0.000244492
-0.000200593
-0.000154629
-0.000106399
-5.66044e-05
-4.43426e-06
4.94192e-05
0.000104841
0.000161573
0.000220728
0.00028075
0.000341594
0.0004043
0.000469371
0.000533636
0.000599005
0.000668143
0.000738061
0.000804996
0.000876781
0.000954459
0.00103
0.00111115
0.00118716
0.00126558
0.00135674
0.00144608
0.00152676
0.00161562
0.00170861
0.00182553
0.00195524
0.00147738
0.000543732
-5.8946e-05
-7.24654e-05
-2.43957e-05
-2.40308e-06
-7.50281e-06
-1.69164e-05
-5.92319e-06
2.48857e-05
5.24597e-05
4.18372e-05
6.61556e-05
0.000106477
0.000137337
0.000166482
8.20847e-07
-0.000264764
-0.000401771
-0.000375746
-0.000344295
-0.000296877
-0.000265246
-0.000252915
-0.000233491
-0.00021389
-0.00021139
-0.000216116
-0.000218157
-0.000225828
-0.000242474
-0.000260268
-0.000277972
-0.000299615
-0.000323971
-0.000347429
-0.000371023
-0.000395707
-0.000420078
-0.000442935
-0.000465255
-0.000486738
-0.000506745
-0.000524911
-0.000541802
-0.000556827
-0.000569925
-0.00058085
-0.000589937
-0.000596622
-0.000601128
-0.000603134
-0.00060293
-0.00060002
-0.000594747
-0.000586722
-0.000576282
-0.00056297
-0.000547196
-0.000528551
-0.000507439
-0.000483419
-0.000456973
-0.000427702
-0.000396052
-0.000361604
-0.000324941
-0.000285643
-0.000244169
-0.000200181
-0.000154356
-0.000106136
-5.60409e-05
-3.92874e-06
4.96101e-05
0.000105402
0.000162583
0.000221116
0.000280993
0.000343117
0.000405703
0.000469241
0.000534916
0.000602447
0.000668988
0.000737659
0.000810114
0.000882261
0.000952773
0.00103
0.00111115
0.00118716
0.00126558
0.00135674
0.00144608
0.00152676
0.00161562
0.00170861
0.00182553
0.00195524
0.00147738
0.000543732
-5.8946e-05
-7.24654e-05
-2.43957e-05
-2.40308e-06
-7.50281e-06
-1.69164e-05
-5.92319e-06
2.48857e-05
5.24597e-05
4.18372e-05
6.61556e-05
0.000106477
0.000137337
0.000166482
8.20847e-07
-0.000264764
-0.000401771
-0.000375746
-0.000344295
-0.000296877
-0.000265246
-0.000252915
-0.000233491
-0.00021389
-0.00021139
-0.000216116
-0.000218157
-0.000225828
-0.000242474
-0.000260268
-0.000277972
-0.000299615
-0.000323971
-0.000347429
-0.000371023
-0.000395707
-0.000420078
-0.000442935
-0.000465255
-0.000486738
-0.000506745
-0.000524911
-0.000541802
-0.000556827
-0.000569925
-0.00058085
-0.000589937
-0.000596622
-0.000601128
-0.000603134
-0.00060293
-0.00060002
-0.000594747
-0.000586722
-0.000576282
-0.00056297
-0.000547196
-0.000528551
-0.000507439
-0.000483419
-0.000456973
-0.000427702
-0.000396052
-0.000361604
-0.000324941
-0.000285643
-0.000244169
-0.000200181
-0.000154356
-0.000106136
-5.60409e-05
-3.92874e-06
4.96101e-05
0.000105402
0.000162583
0.000221116
0.000280993
0.000343117
0.000405703
0.000469241
0.000534916
0.000602447
0.000668988
0.000737659
0.000810114
0.000882261
0.000952773
0.00102725
0.00109752
0.00118211
0.00126986
0.00134165
0.00141866
0.00152114
0.00161553
0.00167779
0.00174572
0.00186819
0.00161907
0.000538422
-6.72313e-05
2.42801e-05
-1.38195e-05
-4.82282e-05
-3.82822e-05
7.66996e-06
2.78276e-05
-6.87249e-06
6.39247e-06
7.50528e-05
8.49533e-05
7.4193e-05
0.000114458
0.000162962
-1.98543e-05
-0.000355564
-0.000433529
-0.000361131
-0.000318975
-0.000311498
-0.000281463
-0.000238426
-0.000224762
-0.000225821
-0.000214959
-0.000208022
-0.000218813
-0.000232343
-0.000242014
-0.00025789
-0.000280757
-0.000302392
-0.000323426
-0.000347731
-0.000373227
-0.000396788
-0.000420142
-0.000443892
-0.000466543
-0.000487242
-0.000507146
-0.000525739
-0.000542495
-0.000557176
-0.000570379
-0.000581414
-0.000590343
-0.000596924
-0.000601516