# vtk DataFile Version 3.0
fluid_state
ASCII
DATASET RECTILINEAR_GRID
DIMENSIONS 100 40 1
X_COORDINATES 100 float
0.5 1.5 2.5 3.5 4.5 5.5 6.5 7.5 8.5 9.5 10.5 11.5 12.5 13.5 14.5 15.5 16.5 17.5 18.5 19.5 20.5 21.5 22.5 23.5 24.5 25.5 26.5 27.5 28.5 29.5 30.5 31.5 32.5 33.5 34.5 35.5 36.5 37.5 38.5 39.5 40.5 41.5 42.5 43.5 44.5 45.5 46.5 47.5 48.5 49.5 50.5 51.5 52.5 53.5 54.5 55.5 56.5 57.5 58.5 59.5 60.5 61.5 62.5 63.5 64.5 65.5 66.5 67.5 68.5 69.5 70.5 71.5 72.5 73.5 74.5 75.5 76.5 77.5 78.5 79.5 80.5 81.5 82.5 83.5 84.5 85.5 86.5 87.5 88.5 89.5 90.5 91.5 92.5 93.5 94.5 95.5 96.5 97.5 98.5 99.5 
Y_COORDINATES 40 float
0.5 1.5 2.5 3.5 4.5 5.5 6.5 7.5 8.5 9.5 10.5 11.5 12.5 13.5 14.5 15.5 16.5 17.5 18.5 19.5 20.5 21.5 22.5 23.5 24.5 25.5 26.5 27.5 28.5 29.5 30.5 31.5 32.5 33.5 34.5 35.5 36.5 37.5 38.5 39.5 
Z_COORDINATES 1 float
0
POINT_DATA 4000
SCALARS density_difference float 1
LOOKUP_TABLE default
4.14806e-05
-5.35451e-06
-5.24204e-05
-9.92262e-05
-0.000145325
-0.000194298
-0.000247147
-0.000297362
-0.000349676
-0.000413832
-0.000476737
-0.000538095
-0.000615423
-0.000695255
-0.00077056
-0.000858357
-0.000946636
-0.0010279
-0.00111422
-0.00119271
-0.00125739
-0.00132295
-0.00137238
-0.00140275
-0.00143157
-0.0014438
-0.00143608
-0.00142733
-0.00140641
-0.0013689
-0.00132903
-0.00128447
-0.0012296
-0.00116845
-0.00110606
-0.00104171
-0.000970732
-0.000896364
-0.000823795
-0.000749458
-0.000670609
-0.000592097
-0.000515245
-0.000436695
-0.000356864
-0.000278845
-0.000201932
-0.000124744
-4.85323e-05
2.54096e-05
9.79285e-05
0.000169142
0.000238073
0.000304346
0.000368444
0.000430027
0.000488572
0.000544039
0.000596598
0.000645884
0.000691713
0.000734112
0.000773099
0.000808441
0.000840132
0.000868181
0.000892588
0.000913256
0.00093024
0.000943539
0.000953216
0.000959249
0.000961696
0.000960607
0.000956121
0.000948208
0.000936952
0.000922522
0.000905072
0.0008845
0.000861032
0.000834968
0.000806328
0.000774982
0.000741479
0.000706098
0.000668546
0.000628941
0.000588245
0.000546277
0.000502506
0.000457775
0.000413085
0.000367305
0.000320324
0.000273843
0.0002279
0.000180736
0.000133458
8.74124e-05
3.7907e-05
-1.03802e-05
-5.82324e-05
-0.000104464
-0.000152406
-0.000206501
-0.000257306
-0.000304954
-0.000366403
-0.000433206
-0.000486704
-0.000553933
-0.000639334
-0.000711313
-0.000782703
-0.000874978
-0.000962828
-0.00103692
-0.00111723
-0.00119772
-0.00125805
-0.00131491
-0.00136541
-0.00139098
-0.00141259
-0.00143193
-0.00142005
-0.0014011
-0.00138908
-0.00135627
-0.0013076
-0.00126355
-0.00121628
-0.00115674
-0.00109027
-0.00102712
-0.000962138
-0.000888723
-0.000813079
-0.000741082
-0.000666251
-0.00058719
-0.00050908
-0.00043301
-0.000354911
-0.000276187
-0.000199287
-0.000123808
-4.80587e-05
2.62207e-05
9.83226e-05
0.000168616
0.000237577
0.000303895
0.000367629
0.000428824
0.00048753
0.00054292
0.0005953
0.000644483
0.000690471
0.000732778
0.000771751
0.000807099
0.000838912
0.000866902
0.000891391
0.000912075
0.000929158
0.000942445
0.00095224
0.000958256
0.000960813
0.000959756
0.000955367
0.000947406
0.000936321
0.000921932
0.000904506
0.000883906
0.000860704
0.000834595
0.000805888
0.00077464
0.000741452
0.000705781
0.000668163
0.000628884
0.000588321
0.00054572
0.000502118
0.000457834
0.000412731
0.00036613
0.000319696
0.000273282
0.000226294
0.000178442
0.000131504
8.48339e-05
3.51818e-05
-1.15066e-05
-5.90356e-05
-0.000109299
-0.000159341
-0.000208413
-0.00025942
-0.00031868
-0.000377061
-0.000431524
-0.000500075
-0.000577938
-0.000641772
-0.000718527
-0.000811429
-0.000888625
-0.000967469
-0.00105896
-0.00113321
-0.00120277
-0.00127337
-0.00132024
-0.00136155
-0.00140137
-0.00141087
-0.00141353
-0.00141837
-0.00139972
-0.00136848
-0.00134025
-0.00130233
-0.00125248
-0.00119726
-0.00114382
-0.00108452
-0.00101624
-0.000947533
-0.000881283
-0.000808565
-0.000732192
-0.000657824
-0.000583618
-0.0005054
-0.000427421
-0.000351017
-0.000274468
-0.000196828
-0.000121052
-4.66238e-05
2.69602e-05
9.95896e-05
0.000169606
0.00023788
0.000304102
0.000368094
0.000428966
0.000487447
0.000542913
0.000595403
0.00064438
0.000690387
0.000732778
0.00077181
0.000807065
0.000838989
0.000867028
0.000891571
0.000912225
0.00092944
0.000942744
0.000952592
0.000958608
0.000961305
0.000960227
0.000955886
0.000947961
0.000937012
0.000922539
0.000905176
0.000884673
0.000861549
0.000835265
0.000806713
0.000775615
0.00074232
0.000706425
0.000669179
0.000629959
0.000588955
0.000546276
0.000503324
0.000458663
0.000412763
0.000366575
0.000320847
0.000273192
0.000225325
0.000178547
0.00013191
8.30287e-05
3.69312e-05
-1.12565e-05
-5.91103e-05
-0.000108996
-0.000159149
-0.000208011
-0.00026122
-0.000322308
-0.000376302
-0.000433564
-0.000510585
-0.0005828
-0.000645823
-0.000734502
-0.00082672
-0.000903667
-0.000987056
-0.00108154
-0.00116076
-0.00122622
-0.00129513
-0.0013481
-0.00138033
-0.0014156
-0.00142935
-0.00141907
-0.00141857
-0.00140681
-0.00136647
-0.00133057
-0.00129527
-0.00124717
-0.00118876
-0.00113096
-0.00107378
-0.00100988
-0.000938481
-0.000869917
-0.000800965
-0.000726909
-0.000650351
-0.000576392
-0.000500922
-0.000423465
-0.000346079
-0.000270583
-0.000194299
-0.000118424
-4.37968e-05
2.88762e-05
0.000101042
0.000171231
0.000239401
0.000305088
0.000369049
0.000430017
0.000488367
0.000543612
0.000596219
0.000645222
0.000691171
0.00073352
0.00077268
0.000807933
0.000839877
0.000867935
0.000892577
0.000913235
0.000930511
0.000943829
0.000953758
0.0009598
0.000962551
0.000961461
0.000957224
0.000949329
0.000938381
0.000923901
0.0009067
0.000886165
0.000862974
0.000836777
0.000808416
0.000777111
0.000743764
0.000708152
0.000670957
0.000631287
0.000590487
0.000548248
0.000504886
0.000459712
0.000414573
0.000368569
0.000321763
0.000274117
0.000227465
0.000179915
0.000132038
8.41352e-05
4.13382e-05
-8.68995e-06
-5.62144e-05
-0.000102943
-0.000152765
-0.000207328
-0.000260001
-0.000311153
-0.00037176
-0.000445184
-0.0005067
-0.000570872
-0.000667994
-0.000755571
-0.000822983
-0.000929193
-0.00103211
-0.00110546
-0.00119377
-0.00127777
-0.00133082
-0.00139265
-0.00142904
-0.0014357
-0.001458
-0.00146236
-0.00142806
-0.00140596
-0.00138372
-0.00134095
-0.00128645
-0.00123749
-0.00118962
-0.00112801
-0.00105921
-0.000999164
-0.000935231
-0.000861884
-0.000788781
-0.000719947
-0.000645869
-0.000568826
-0.000493394
-0.000419231
-0.000342029
-0.000265362
-0.00019012
-0.000115762
-4.07786e-05
3.20668e-05
0.000103382
0.000173046
0.00024154
0.000307063
0.000370576
0.000431459
0.000490002
0.000545059
0.000597525
0.000646586
0.000692635
0.000734868
0.00077405
0.000809377
0.000841376
0.000869391
0.000894118
0.000914825
0.000932139
0.00094546
0.000955489
0.000961546
0.000964328
0.000963278
0.000959132
0.000951206
0.000940305
0.000925906
0.000908752
0.000888137
0.00086506
0.000838975
0.000810553
0.000779163
0.00074608
0.000710527
0.0006731
0.000633485
0.000593147
0.000550724
0.000506993
0.000462273
0.000417688
0.000371017
0.000323965
0.000277416
0.000231095
0.000182312
0.000134688
8.85354e-05
4.61778e-05
1.48389e-07
-4.73047e-05
-9.70016e-05
-0.000144519
-0.000196013
-0.000250075
-0.000303317
-0.00036541
-0.000436302
-0.000498432
-0.000577405
-0.00067509
-0.000757252
-0.0008489
-0.000962014
-0.0010626
-0.00115464
-0.00124711
-0.00133943
-0.00139768
-0.00144793
-0.00149214
-0.00150045
-0.00149638
-0.00150155
-0.00146915
-0.0014282
-0.00139701
-0.00135164
-0.00129674
-0.00123942
-0.00118118
-0.0011244
-0.00105818
-0.000989362
-0.000923451
-0.000856089
-0.000782397
-0.000709621
-0.000637281
-0.000563353
-0.000486808
-0.000411848
-0.000336561
-0.000261035
-0.000185083
-0.000111113
-3.73112e-05
3.52989e-05
0.000106885
0.000175977
0.000243969
0.000309544
0.000373082
0.00043357
0.000492012
0.000547148
0.000599571
0.000648453
0.000694562
0.000736841
0.000776006
0.000811289
0.00084338
0.000871422
0.000896172
0.000916888
0.000934286
0.000947638
0.000957703
0.000963772
0.000966644
0.000965629
0.000961494
0.00095359
0.000942811
0.000928413
0.000911228
0.000890706
0.000867781
0.000841583
0.000813152
0.000782023
0.000749012
0.00071318
0.000675979
0.000636813
0.000596215
0.000553497
0.000510581
0.000466216
0.00042079
0.000374416
0.000328967
0.000281932
0.000234442
0.000187609
0.000141758
9.345e-05
5.57516e-05
1.12093e-05
-3.60805e-05
-8.58079e-05
-0.000131972
-0.000179374
-0.000233622
-0.000295445
-0.000352908
-0.000410412
-0.000495539
-0.000593844
-0.000657958
-0.000756009
-0.000903552
-0.000992241
-0.00108375
-0.00122843
-0.00132718
-0.00140213
-0.00149076
-0.00152727
-0.00155734
-0.0015989
-0.00156505
-0.00152644
-0.00152439
-0.00148298
-0.00141456
-0.00135724
-0.00131195
-0.00125556
-0.00117861
-0.0011142
-0.00105766
-0.000987665
-0.000911823
-0.000845511
-0.000776957
-0.000701855
-0.000626762
-0.000555485
-0.000480721
-0.00040446
-0.000329201
-0.000255569
-0.000180053
-0.000105638
-3.24742e-05
3.91231e-05
0.000110718
0.00017984
0.00024729
0.000312446
0.000376096
0.000436476
0.000494618
0.00054965
0.000602173
0.00065095
0.000696959
0.000739262
0.000778495
0.000813722
0.000845831
0.000873926
0.00089872
0.000919431
0.000936895
0.000950286
0.000960385
0.000966492
0.000969434
0.000968427
0.000964338
0.000956506
0.000945765
0.000931351
0.000914264
0.000893833
0.000870879
0.000844691
0.000816465
0.000785386
0.000752276
0.00071661
0.000679733
0.000640477
0.000599821
0.000557604
0.000515033
0.000470386
0.000425248
0.00037983
0.000334533
0.000287208
0.000240784
0.000195253
0.000149262
0.000101126
6.9508e-05
2.1196e-05
-2.23632e-05
-6.46751e-05
-0.000114417
-0.000165824
-0.000211824
-0.000269222
-0.000334348
-0.000398874
-0.000480408
-0.000572124
-0.000662894
-0.000786661
-0.000904118
-0.00101989
-0.00116246
-0.00128552
-0.00140126
-0.00149357
-0.00159151
-0.00164743
-0.00164886
-0.00165794
-0.00166169
-0.00160944
-0.00156519
-0.00151411
-0.00145301
-0.00139497
-0.00131888
-0.00125371
-0.00119316
-0.00111919
-0.00104517
-0.000980665
-0.000910979
-0.000836648
-0.000764188
-0.000694291
-0.000620115
-0.000545329
-0.000471347
-0.000397972
-0.000322253
-0.000247744
-0.000173763
-0.00010053
-2.68746e-05
4.45222e-05
0.000115044
0.000183858
0.000251531
0.000316265
0.000379414
0.000439802
0.000497978
0.000552707
0.000605091
0.000653935
0.000699922
0.000742089
0.000781342
0.000816628
0.000848728
0.000876796
0.000901656
0.000922417
0.000939894
0.000953302
0.000963479
0.000969631
0.000972583
0.000971612
0.000967617
0.00095981
0.000949059
0.000934731
0.00091776
0.000897287
0.00087434
0.000848367
0.000820222
0.000788997
0.000756071
0.000720801
0.000683808
0.000644402
0.00060442
0.000562646
0.000519552
0.00047523
0.000431575
0.000386108
0.000339969
0.000294511
0.000250204
0.000203136
0.000157117
0.000113809
8.26172e-05
3.81509e-05
-3.19012e-06
-4.60882e-05
-9.25004e-05
-0.000140668
-0.000187909
-0.000240072
-0.000305017
-0.000385219
-0.000454774
-0.000532678
-0.000680763
-0.000814446
-0.000876872
-0.00105918
-0.00124691
-0.00132902
-0.00147827
-0.00161833
-0.00167458
-0.00176021
-0.00178985
-0.00171758
-0.00173195
-0.00171896
-0.00161398
-0.00154235
-0.00148889
-0.00143019
-0.00134164
-0.00125539
-0.00119526
-0.00112712
-0.00104331
-0.000971126
-0.000904619
-0.000830947
-0.000754417
-0.00068374
-0.000611628
-0.000536719
-0.000461735
-0.000389258
-0.000314831
-0.000240262
-0.00016633
-9.4119e-05
-2.11607e-05
5.02507e-05
0.000120431
0.000188533
0.000255933
0.00032064
0.00038346
0.000443488
0.00050161
0.000556289
0.000608472
0.000657199
0.000703211
0.000745342
0.000784522
0.000819813
0.000851952
0.000880018
0.000904889
0.00092569
0.000943204
0.000956645
0.000966864
0.000973047
0.000976043
0.000975137
0.00097117
0.000963381
0.000952714
0.00093846
0.000921473
0.000901054
0.00087827
0.000852331
0.000824144
0.000793128
0.000760439
0.000725093
0.000688183
0.000649295
0.000609498
0.000567576
0.00052505
0.000481577
0.00043785
0.000392564
0.00034794
0.00030333
0.000258727
0.000213146
0.000169665
0.000126509
9.78854e-05
6.08965e-05
1.792e-05
-2.86369e-05
-6.37923e-05
-0.000103665
-0.000162125
-0.000215297
-0.000261893
-0.00034071
-0.000433608
-0.000523569
-0.000642647
-0.000779252
-0.000944443
-0.00110264
-0.00119637
-0.00139007
-0.00157916
-0.00172724
-0.00177516
-0.00183038
-0.00190054
-0.00188439
-0.00178435
-0.00173327
-0.00167209
-0.00162593
-0.00152832
-0.00141971
-0.00136364
-0.0012899
-0.00119103
-0.00111582
-0.00105018
-0.000971677
-0.000891298
-0.000821359
-0.000749973
-0.000673968
-0.000599232
-0.000528169
-0.000454032
-0.000379132
-0.000305559
-0.000233269
-0.000159102
-8.63003e-05
-1.46672e-05
5.57672e-05
0.000126229
0.000194156
0.000260655
0.000325082
0.000388012
0.000447726
0.000505421
0.000560086
0.000612267
0.000660784
0.000706664
0.00074885
0.000788007
0.000823215
0.000855359
0.000883486
0.00090835
0.000929148
0.000946715
0.000960212
0.000970435
0.000976653
0.000979721
0.000978854
0.000974889
0.000967172
0.00095659
0.000942338
0.000925368
0.000905103
0.000882393
0.000856402
0.000828346
0.000797621
0.000764912
0.000729525
0.000693083
0.000654586
0.000614556
0.000572913
0.000531485
0.000488233
0.000444085
0.00040016
0.000357374
0.000312194
0.00026766
0.00022585
0.000184168
0.000138776
0.000117776
7.8357e-05
4.02655e-05
3.12626e-06
-3.49666e-05
-7.71116e-05
-0.000119647
-0.000169374
-0.000229319
-0.00029311
-0.000383413
-0.000505956
-0.000589161
-0.000716684
-0.00100097
-0.00111851
-0.00115629
-0.00140838
-0.00156441
-0.00175
-0.00196429
-0.00199775
-0.00190979
-0.00196724
-0.00185829
-0.00177212
-0.00174359
-0.00165377
-0.00155956
-0.00145069
-0.00136627
-0.0012946
-0.00120333
-0.0011175
-0.00104343
-0.000966831
-0.000887204
-0.000812898
-0.000739754
-0.000665265
-0.000590279
-0.000517678
-0.000444392
-0.000370696
-0.000296748
-0.000224432
-0.000151598
-7.93545e-05
-7.58266e-06
6.23028e-05
0.000131856
0.000199637
0.000266033
0.000329936
0.000392446
0.000452148
0.000509663
0.000564029
0.00061608
0.000664605
0.000710354
0.000752436
0.000791583
0.000826809
0.000858902
0.000887029
0.00091192
0.000932754
0.000950324
0.000963852
0.000974116
0.000980391
0.000983472
0.000982637
0.000978741
0.000971089
0.000960493
0.000946304
0.000929462
0.000909224
0.000886485
0.000860689
0.000832816
0.000802016
0.000769403
0.000734489
0.000698153
0.000659511
0.000620069
0.000579194
0.000537546
0.000494502
0.000451959
0.000408689
0.000365337
0.0003219
0.000280126
0.000237887
0.000196455
0.000156215
0.000137649
9.70926e-05
6.6116e-05
3.71804e-05
-5.30056e-06
-4.59074e-05
-6.82175e-05
-0.000114985
-0.000192852
-0.000245763
-0.000304405
-0.000434592
-0.000571125
-0.0006825
-0.000840454
-0.00108226
-0.00135854
-0.00131683
-0.00134603
-0.00154034
-0.00156706
-0.00184598
-0.00197932
-0.00183097
-0.00190415
-0.00191094
-0.00182755
-0.00162436
-0.00155001
-0.00151055
-0.00138014
-0.00127297
-0.00121094
-0.00112999
-0.00103415
-0.000956555
-0.000886022
-0.000806658
-0.000727231
-0.000656105
-0.000583506
-0.000507459
-0.000433417
-0.000362499
-0.000289051
-0.000215326
-0.000143355
-7.27035e-05
-9.25996e-07
6.92318e-05
0.00013782
0.000204903
0.000271351
0.000335103
0.000396988
0.000456469
0.000513982
0.000568152
0.000619906
0.00066841
0.000714129
0.000756098
0.000795152
0.00083042
0.000862493
0.000890592
0.000915486
0.000936375
0.000953941
0.000967493
0.000977798
0.00098412
0.000987206
0.000986428
0.000982586
0.000974959
0.000964385
0.000950298
0.000933508
0.000913274
0.000890627
0.000865007
0.000837151
0.000806387
0.000774058
0.000739394
0.000703014
0.000664624
0.000625835
0.000585201
0.000543511
0.000501362
0.000459996
0.000416762
0.000373734
0.000332623
0.000292504
0.000249782
0.000210218
0.000175
0.000155424
0.000124796
9.24823e-05
5.96463e-05
3.42584e-05
5.9428e-06
-3.47078e-05
-7.31854e-05
-0.000104537
-0.000175659
-0.000271076
-0.00033781
-0.000467603
-0.000637984
-0.000638686
-0.000913922
-0.00135976
-0.000865808
-0.000765694
-0.00111318
-0.000757534
-0.00113354
-0.00135406
-0.00127891
-0.00181682
-0.00196015
-0.00176822
-0.00169376
-0.00157127
-0.00147494
-0.00138823
-0.0012963
-0.00120596
-0.00111729
-0.00103492
-0.000955875
-0.000875442
-0.000797626
-0.000722113
-0.000646992
-0.000572342
-0.000499418
-0.000425766
-0.000352583
-0.000280178
-0.000208395
-0.000135931
-6.48096e-05
5.54334e-06
7.49796e-05
0.000143894
0.000210671
0.000276215
0.000339833
0.000401753
0.000460855
0.000517969
0.00057217
0.000623835
0.000672118
0.000717718
0.000759736
0.000798708
0.000833905
0.000865969
0.000894115
0.000918976
0.00093987
0.000957464
0.000971068
0.000981367
0.000987717
0.000990855
0.000990133
0.000986278
0.000978701
0.000968223
0.000954165
0.000937344
0.000917256
0.00089475
0.000869072
0.000841264
0.000810868
0.000778626
0.000743808
0.000707859
0.000670114
0.000631104
0.000590518
0.000550174
0.000508623
0.000466532
0.000424603
0.000384201
0.000342639
0.000302052
0.000263936
0.000227298
0.000189344
0.000174588
0.000149003
0.000119087
8.81803e-05
7.1672e-05
5.20546e-05
1.13453e-05
-1.66164e-05
-2.70064e-05
-9.79554e-05
-0.000197545
-0.000241589
-0.000316793
-0.000496012
-0.000587435
-0.000667391
-0.000783368
-0.000584036
-0.000476376
-0.00056314
-0.000586132
-0.000697139
-0.000618825
-0.000731731
-0.0012434
-0.00160091
-0.00167504
-0.00174051
-0.00160646
-0.00144199
-0.00138587
-0.00130811
-0.00119576
-0.00110871
-0.00103706
-0.000951582
-0.000864235
-0.00079021
-0.00071736
-0.000638567
-0.000562063
-0.000491318
-0.000418747
-0.000344146
-0.000271644
-0.000201296
-0.000129402
-5.78427e-05
1.20374e-05
8.05957e-05
0.000149237
0.000216051
0.000281097
0.000344278
0.000406074
0.000465088
0.000521867
0.000575907
0.000627511
0.000675713
0.000721147
0.00076314
0.000802084
0.000837248
0.00086926
0.000897435
0.000922286
0.000943192
0.000960791
0.000974435
0.000984738
0.000991129
0.000994293
0.000993602
0.000989769
0.000982258
0.000971803
0.000957772
0.000941019
0.000921021
0.000898524
0.000872921
0.000845279
0.000814986
0.00078277
0.000748194
0.000712558
0.000674918
0.000636089
0.000596111
0.000556249
0.000514877
0.000473434
0.000432721
0.000393071
0.000352028
0.000312997
0.000277213
0.000242044
0.000205193
0.000195032
0.000164501
0.000144632
0.000127614
0.000102404
8.30836e-05
7.94463e-05
5.51986e-05
4.39978e-06
-6.45839e-06
-1.10647e-05
-0.000158984
-0.00029538
-0.000361405
-0.00048427
-0.000504733
-0.000543327
-0.000651661
-0.000656227
-0.000529384
-0.000608722
-0.000544001
-0.000518733
-0.000546521
-0.000705702
-0.00102228
-0.00147539
-0.00161132
-0.00155213
-0.00149061
-0.00138763
-0.00127672
-0.00119332
-0.00111603
-0.00102511
-0.000940076
-0.000864592
-0.000785197
-0.000704744
-0.000631377
-0.000558348
-0.000482519
-0.000408986
-0.00033837
-0.000265915
-0.000193272
-0.000122612
-5.28783e-05
1.76046e-05
8.66195e-05
0.000154043
0.000220318
0.000285713
0.000348688
0.000409804
0.000468769
0.000525618
0.0005794
0.000630735
0.000678998
0.000724388
0.000766244
0.000805119
0.000840343
0.000872308
0.000900447
0.000925304
0.00094626
0.000963836
0.000977491
0.000987828
0.000994268
0.000997414
0.000996756
0.000992986
0.000985508
0.000975023
0.00096108
0.000944429
0.000924403
0.000901907
0.00087654
0.000848983
0.000818565
0.000786574
0.000752466
0.000716705
0.000678981
0.000641029
0.000601583
0.000561114
0.000520408
0.000480972
0.000440072
0.000399539
0.000361649
0.000325489
0.000287351
0.000253235
0.000224589
0.000211495
0.00018528
0.000167474
0.000155579
0.000138888
0.00012236
0.000124782
0.00012098
8.81051e-05
7.70193e-05
7.95991e-05
2.85659e-05
-0.000106778
-0.000389783
-0.000579301
-0.000562396
-0.000595582
-0.00062127
-0.000596108
-0.000562141
-0.000609196
-0.000542316
-0.000505825
-0.000513734
-0.000537668
-0.000581857
-0.000976296
-0.00144813
-0.00157377
-0.00148021
-0.00134379
-0.00126772
-0.00120336
-0.00110837
-0.00101224
-0.000936106
-0.00086107
-0.000778104
-0.000697872
-0.000624956
-0.00055178
-0.000476293
-0.00040261
-0.000331688
-0.000260016
-0.00018788
-0.000116985
-4.74465e-05
2.22594e-05
9.10932e-05
0.000158537
0.000224448
0.000289399
0.000352344
0.000413344
0.000472044
0.000528706
0.000582488
0.000633697
0.000681839
0.000727169
0.000769029
0.000807828
0.000843026
0.00087498
0.000903132
0.000927963
0.000948935
0.000966517
0.000980201
0.000990538
0.000996999
0.00100017
0.000999552
0.000995781
0.000988328
0.000977898
0.000963998
0.000947331
0.000927379
0.000904991
0.000879632
0.000852085
0.000821886
0.000790032
0.000755872
0.000720324
0.000683064
0.000645148
0.000605734
0.000566044
0.000525962
0.000486366
0.000446187
0.00040732
0.000369847
0.000333904
0.000298251
0.000266334
0.000238208
0.000224058
0.000208958
0.000188342
0.000170145
0.000172145
0.000173328
0.000158939
0.000160781
0.00018848
0.000171258
0.000124332
0.000215208
0.000103493
-0.000407778
-0.000651493
-0.000611904
-0.000578645
-0.000559492
-0.000590929
-0.000613261
-0.000533745
-0.000536853
-0.000571
-0.000523716
-0.000429502
-0.000423515
-0.000666164
-0.00124143
-0.00151128
-0.00141844
-0.00135108
-0.00128029
-0.00117864
-0.00108975
-0.00101989
-0.000936823
-0.000845917
-0.000770521
-0.000699417
-0.000619491
-0.000541736
-0.000471913
-0.000400146
-0.000325238
-0.000253581
-0.000184391
-0.00011321
-4.22236e-05
2.64545e-05
9.41948e-05
0.000162129
0.000228248
0.00029242
0.00035512
0.000416354
0.000474904
0.000531187
0.000584988
0.00063624
0.000684234
0.000729435
0.000771353
0.000810128
0.000845259
0.000877191
0.000905391
0.000930197
0.000951157
0.000968754
0.000982476
0.000992796
0.000999271
0.00100247
0.00100189
0.000998096
0.000990685
0.000980316
0.000966414
0.000949728
0.000929894
0.000907576
0.000882147
0.000854675
0.000824746
0.000792866
0.000758596
0.000723467
0.000686595
0.000648346
0.000609113
0.000570575
0.000530585
0.000490255
0.000451599
0.000414757
0.00037598
0.000339811
0.000309124
0.000278918
0.000246644
0.000236682
0.000218124
0.000205398
0.000195527
0.000192824
0.00019939
0.000204294
0.000208064
0.000237162
0.000256402
0.000253273
0.000295876
-0.000132037
-0.000567575
-0.000559669
-0.000586102
-0.000600267
-0.000585844
-0.000582122
-0.00058063
-0.000546198
-0.000548623
-0.000521496
-0.000496771
-0.000453148
-0.00045237
-0.000468634
-0.000931973
-0.00142768
-0.00139623
-0.00135786
-0.00126201
-0.00116688
-0.00109339
-0.00101321
-0.000926502
-0.000845774
-0.000768652
-0.000691086
-0.000614992
-0.000540559
-0.000466945
-0.000394266
-0.000322469
-0.000250768
-0.000179747
-0.000109481
-3.97827e-05
2.9509e-05
9.76132e-05
0.000164687
0.00023052
0.000295034
0.000357586
0.000418383
0.000476965
0.000533328
0.000586948
0.000638049
0.000686112
0.000731287
0.000773112
0.000811859
0.000847034
0.000878932
0.000907107
0.00093192
0.00095291
0.000970489
0.000984213
0.000994553
0.00100106
0.00100425
0.00100367
0.000999921
0.000992532
0.000982129
0.000968274
0.00095167
0.000931809
0.000909457
0.000884195
0.000856804
0.000826735
0.000794974
0.000761077
0.000725839
0.000688785
0.000651176
0.000612381
0.000573235
0.000533599
0.00049485
0.000455929
0.000418115
0.000381737
0.000347676
0.000314733
0.000285296
0.000259225
0.000245628
0.000222967
0.000216664
0.000217434
0.000208483
0.00020814
0.000236448
0.0002645
0.000272523
0.000294203
0.000371522
0.000252751
-0.000330433
-0.00062083
-0.000529464
-0.000577188
-0.000614862
-0.000597521
-0.000556546
-0.000549232
-0.000579294
-0.000554664
-0.000488967
-0.000483898
-0.000486148
-0.000433966
-0.000389815
-0.000715551
-0.00127758
-0.00141582
-0.00131901
-0.0012383
-0.00118036
-0.00109785
-0.000997711
-0.000918904
-0.000850588
-0.000767255
-0.000682923
-0.000611904
-0.000540997
-0.000463604
-0.000389573
-0.000320583
-0.000249318
-0.000176602
-0.000106679
-3.81851e-05
3.13811e-05
9.99775e-05
0.000166526
0.000231993
0.000296739
0.00035931
0.000419787
0.000478321
0.000534772
0.000588311
0.000639278
0.000687371
0.000732556
0.000774322
0.000813033
0.00084824
0.000880125
0.00090828
0.000933093
0.000954107
0.000971675
0.000985399
0.000995752
0.00100228
0.00100545
0.00100489
0.00100117
0.000993785
0.000983368
0.000969552
0.000952985
0.000933103
0.000910758
0.000885599
0.000858223
0.000828096
0.000796454
0.000762742
0.000727406
0.00069034
0.00065315
0.000614503
0.000575032
0.000535809
0.000497958
0.0004587
0.000420499
0.000385899
0.000352956
0.000318294
0.000289723
0.000268485
0.00024807
0.000235553
0.000221946
0.000213622
0.000221776
0.000233726
0.000242728
0.000264861
0.000301683
0.000365038
0.00044573
0.000199559
-0.000270789
-0.000582156
-0.000623411
-0.000592416
-0.000560685
-0.000578188
-0.000590181
-0.000572387
-0.00054258
-0.000523364
-0.000528341
-0.000490612
-0.000458389
-0.000418155
-0.000365665
-0.00066804
-0.00114831
-0.00139118
-0.00132626
-0.00125509
-0.00116549
-0.00107968
-0.00100799
-0.000926155
-0.000838369
-0.000761957
-0.000689474
-0.000610936
-0.000534101
-0.000463229
-0.000391481
-0.000317725
-0.000246329
-0.000176833
-0.000106252
-3.59607e-05
3.25745e-05
0.000100184
0.000167554
0.000233339
0.000297367
0.000359851
0.000420735
0.000479151
0.000535306
0.00058896
0.00064004
0.000687996
0.000733111
0.000774968
0.000813678
0.000848816
0.000880706
0.000908905
0.000933698
0.000954687
0.000972274
0.000986023
0.000996355
0.00100287
0.00100608
0.00100553
0.00100177
0.0009944
0.000984045
0.000970205
0.000953575
0.000933788
0.000911516
0.000886216
0.000858838
0.000828979
0.000797264
0.000763258
0.000728269
0.000691592
0.000653811
0.000615037
0.000576731
0.000537372
0.000498108
0.000460124
0.0004239
0.000386938
0.000352782
0.000323116
0.000295037
0.000267227
0.00024807
0.000235553
0.000221946
0.000213622
0.000221776
0.000233726
0.000242728
0.000264861
0.000301683
0.000365038
0.00044573
0.000199559
-0.000270789
-0.000582156
-0.000623411
-0.000592416
-0.000560685
-0.000578188
-0.000590181
-0.000572387
-0.00054258
-0.000523364
-0.000528341
-0.000490612
-0.000458389
-0.000418155
-0.000365665
-0.00066804
-0.00114831
-0.00139118
-0.00132626
-0.00125509
-0.00116549
-0.00107968
-0.00100799
-0.000926155
-0.000838369
-0.000761957
-0.000689474
-0.000610936
-0.000534101
-0.000463229
-0.000391481
-0.000317725
-0.000246329
-0.000176833
-0.000106252
-3.59607e-05
3.25745e-05
0.000100184
0.000167554
0.000233339
0.000297367
0.000359851
0.000420735
0.000479151
0.000535306
0.00058896
0.00064004
0.000687996
0.000733111
0.000774968
0.000813678
0.000848816
0.000880706
0.000908905
0.000933698
0.000954687
0.000972274
0.000986023
0.000996355
0.00100287
0.00100608
0.00100553
0.00100177
0.0009944
0.000984045
0.000970205
0.000953575
0.000933788
0.000911516
0.000886216
0.000858838
0.000828979
0.000797264
0.000763258
0.000728269
0.000691592
0.000653811
0.000615037
0.000576731
0.000537372
0.000498108
0.000460124
0.0004239
0.000386938
0.000352782
0.000323116
0.000295037
0.000267227
0.000245628
0.000222967
0.000216664
0.000217434
0.000208483
0.00020814
0.000236448
0.0002645
0.000272523
0.000294203
0.000371522
0.000252751
-0.000330433
-0.00062083
-0.000529464
-0.000577188
-0.000614862
-0.000597521
-0.000556546
-0.000549232
-0.000579294
-0.000554664
-0.000488967
-0.000483898
-0.000486148
-0.000433966
-0.000389815
-0.000715551
-0.00127758
-0.00141582
-0.00131901
-0.0012383
-0.00118036
-0.00109785
-0.000997711
-0.000918904
-0.000850588
-0.000767255
-0.000682923
-0.000611904
-0.000540997
-0.000463604
-0.000389573
-0.000320583
-0.000249318
-0.000176602
-0.000106679
-3.81851e-05
3.13811e-05
9.99775e-05
0.000166526
0.000231993
0.000296739
0.00035931
0.000419787
0.000478321
0.000534772
0.000588311
0.000639278
0.000687371
0.000732556
0.000774322
0.000813033
0.00084824
0.000880125
0.00090828
0.000933093
0.000954107
0.000971675
0.000985399
0.000995752
0.00100228
0.00100545
0.00100489
0.00100117
0.000993785
0.000983368
0.000969552
0.000952985
0.000933103
0.000910758
0.000885599
0.000858223
0.000828096
0.000796454
0.000762742
0.000727406
0.00069034
0.00065315
0.000614503
0.000575032
0.000535809
0.000497958
0.0004587
0.000420499
0.000385899
0.000352956
0.000318294
0.000289723
0.000268485
0.000236682
0.000218124
0.000205398
0.000195527
0.000192824
0.00019939
0.000204294
0.000208064