# vtk DataFile Version 3.0
fluid_state
ASCII
DATASET RECTILINEAR_GRID
DIMENSIONS 100 40 1
X_COORDINATES 100 float
0.5 1.5 2.5 3.5 4.5 5.5 6.5 7.5 8.5 9.5 10.5 11.5 12.5 13.5 14.5 15.5 16.5 17.5 18.5 19.5 20.5 21.5 22.5 23.5 24.5 25.5 26.5 27.5 28.5 29.5 30.5 31.5 32.5 33.5 34.5 35.5 36.5 37.5 38.5 39.5 40.5 41.5 42.5 43.5 44.5 45.5 46.5 47.5 48.5 49.5 50.5 51.5 52.5 53.5 54.5 55.5 56.5 57.5 58.5 59.5 60.5 61.5 62.5 63.5 64.5 65.5 66.5 67.5 68.5 69.5 70.5 71.5 72.5 73.5 74.5 75.5 76.5 77.5 78.5 79.5 80.5 81.5 82.5 83.5 84.5 85.5 86.5 87.5 88.5 89.5 90.5 91.5 92.5 93.5 94.5 95.5 96.5 97.5 98.5 99.5 
Y_COORDINATES 40 float
0.5 1.5 2.5 3.5 4.5 5.5 6.5 7.5 8.5 9.5 10.5 11.5 12.5 13.5 14.5 15.5 16.5 17.5 18.5 19.5 20.5 21.5 22.5 23.5 24.5 25.5 26.5 27.5 28.5 29.5 30.5 31.5 32.5 33.5 34.5 35.5 36.5 37.5 38.5 39.5 
Z_COORDINATES 1 float
0
POINT_DATA 4000
SCALARS density_difference float 1
LOOKUP_TABLE default
0.0005436
0.000527498
0.000509782
0.000490565
0.000468214
0.000439574
0.000404344
0.000368852
0.000326676
0.000267015
0.000206086
0.000143494
5.72805e-05
-3.50878e-05
-0.000124955
-0.000233084
-0.000344876
-0.000451718
-0.000567023
-0.000673711
-0.000767089
-0.000864632
-0.000942675
-0.000999307
-0.00105717
-0.0010963
-0.00111279
-0.0011296
-0.00113373
-0.00112016
-0.00110498
-0.00108556
-0.00105584
-0.0010202
-0.00098444
-0.000947434
-0.000903915
-0.000857725
-0.000814422
-0.000769663
-0.000720489
-0.000672143
-0.00062598
-0.000577975
-0.000528403
-0.000480626
-0.000433748
-0.000385819
-0.000338088
-0.000291951
-0.000246213
-0.000200425
-0.000155608
-0.00011208
-6.90422e-05
-2.6723e-05
1.4356e-05
5.42487e-05
9.33239e-05
0.000131203
0.000167748
0.000203025
0.000237155
0.000269836
0.000301115
0.000330977
0.000359467
0.0003864
0.000411869
0.000435802
0.00045828
0.000479183
0.000498584
0.000516435
0.000532882
0.00054778
0.000561198
0.000573208
0.000583941
0.000593154
0.000601035
0.000607799
0.000613378
0.000617465
0.000620586
0.000622923
0.000623967
0.000623667
0.000623036
0.000621679
0.000618652
0.000614838
0.000611348
0.00060642
0.000599513
0.000592935
0.000586419
0.000576923
0.000565946
0.000555776
0.000536718
0.000519909
0.00050173
0.00048181
0.000457232
0.000423977
0.000390593
0.000357294
0.000304723
0.000242628
0.000192672
0.000122541
2.66082e-05
-5.56909e-05
-0.000140622
-0.000254751
-0.000367105
-0.000463717
-0.000571023
-0.000682576
-0.000770501
-0.000855086
-0.000935822
-0.000987778
-0.00103577
-0.00108266
-0.00109488
-0.00109981
-0.00111373
-0.00110524
-0.00108017
-0.00106103
-0.00103997
-0.00100612
-0.000965415
-0.000929785
-0.000893257
-0.000847882
-0.000800994
-0.000758961
-0.000714396
-0.000665327
-0.000617633
-0.000572458
-0.000524949
-0.000476268
-0.000429282
-0.000383373
-0.000336218
-0.000289594
-0.000244295
-0.00019967
-0.000154832
-0.000111237
-6.86732e-05
-2.693e-05
1.42961e-05
5.40133e-05
9.27733e-05
0.000130386
0.000167035
0.000202065
0.000236057
0.000268596
0.000299924
0.000329572
0.000358054
0.000384879
0.00041038
0.000434181
0.00045672
0.000477512
0.000496978
0.000514785
0.000531295
0.000546077
0.000559648
0.000571655
0.000582378
0.000591521
0.000599674
0.000606352
0.000611807
0.000615992
0.000619438
0.000621398
0.000622299
0.000622402
0.00062186
0.000619662
0.000616798
0.000613613
0.000609424
0.000603357
0.000597293
0.000590891
0.000582524
0.000572279
0.000562351
0.00055098
0.000532103
0.000517734
0.000498824
0.000474221
0.000448491
0.000420804
0.000386271
0.000339815
0.000291471
0.000244004
0.000175173
9.22036e-05
2.31823e-05
-6.53778e-05
-0.000177708
-0.000273183
-0.00037435
-0.000492993
-0.000593396
-0.000691435
-0.000792167
-0.000864649
-0.000934209
-0.00100299
-0.00103648
-0.0010635
-0.00109464
-0.00109942
-0.00109146
-0.00108751
-0.00107415
-0.00104853
-0.00101821
-0.00099092
-0.000958238
-0.000916653
-0.000875888
-0.000838482
-0.000794872
-0.000747882
-0.000703736
-0.000660208
-0.000612516
-0.000565063
-0.000519438
-0.000473432
-0.000425638
-0.000379306
-0.000333756
-0.000288108
-0.000242204
-0.00019794
-0.000154045
-0.00011071
-6.78987e-05
-2.66692e-05
1.41349e-05
5.37888e-05
9.25684e-05
0.000129767
0.000166284
0.000201258
0.000235192
0.00026746
0.000298788
0.000328361
0.000356795
0.00038346
0.000409022
0.000432749
0.000455273
0.000475988
0.000495558
0.000513292
0.000529814
0.000544603
0.000558301
0.0005702
0.000580978
0.00059023
0.000598464
0.000604957
0.000610589
0.000614965
0.000618292
0.000620025
0.000621368
0.000621577
0.000620511
0.000618279
0.000616224
0.0006126
0.000607426
0.000602033
0.000596872
0.000588796
0.000579455
0.000571005
0.000561166
0.000546699
0.000533407
0.00051615
0.000496776
0.000474513
0.00044816
0.000419098
0.000383345
0.000335883
0.00029128
0.000239835
0.000161606
8.57031e-05
1.65641e-05
-8.74782e-05
-0.000199324
-0.000294571
-0.000401348
-0.000525742
-0.000633679
-0.000724201
-0.00082361
-0.000906137
-0.000963141
-0.00102484
-0.00106396
-0.00107558
-0.00109952
-0.00111114
-0.00109216
-0.00107904
-0.00106814
-0.00104398
-0.00100933
-0.00097677
-0.000946655
-0.000909428
-0.000865206
-0.000825276
-0.000785868
-0.000741259
-0.000694579
-0.000651294
-0.000606775
-0.000559939
-0.000513144
-0.000468373
-0.000422291
-0.000375899
-0.000330128
-0.000285673
-0.000240465
-0.000196084
-0.000152408
-0.000109888
-6.72621e-05
-2.60529e-05
1.44443e-05
5.36421e-05
9.24137e-05
0.00012948
0.000165772
0.000200518
0.000234472
0.000266581
0.000297803
0.000327257
0.000355708
0.000382257
0.000407804
0.00043145
0.00045401
0.000474678
0.00049427
0.000511937
0.000528558
0.000543348
0.000557044
0.00056892
0.000579893
0.000589112
0.000597287
0.000603899
0.000609788
0.000613951
0.000617246
0.000619367
0.000620824
0.000620527
0.000619755
0.000618165
0.000615645
0.000611407
0.00060732
0.000602319
0.000595696
0.000587728
0.000580355
0.000570883
0.000559072
0.000546556
0.000536728
0.000517469
0.000500018
0.00048101
0.000453677
0.000419473
0.000385345
0.000347871
0.000295133
0.000225354
0.000165385
9.81142e-05
-1.37826e-05
-0.000116465
-0.000198055
-0.000331626
-0.000463877
-0.000561727
-0.000681889
-0.000796811
-0.000876927
-0.000969359
-0.00103125
-0.00105919
-0.0011073
-0.00113406
-0.00111829
-0.00111733
-0.00111739
-0.00109549
-0.00106214
-0.00103605
-0.00101274
-0.000975069
-0.000931431
-0.000898218
-0.000862011
-0.000816397
-0.000772081
-0.000733128
-0.000689334
-0.000642419
-0.000597745
-0.000554747
-0.000508343
-0.00046211
-0.000417242
-0.000372816
-0.000326756
-0.000282099
-0.000238042
-0.000194487
-0.000150548
-0.000108335
-6.64368e-05
-2.55267e-05
1.50643e-05
5.38648e-05
9.22802e-05
0.000129231
0.000165504
0.000199932
0.00023376
0.000265797
0.000296971
0.000326221
0.000354669
0.000381154
0.000406672
0.000430214
0.000452838
0.000473445
0.000493045
0.000510696
0.000527415
0.000542134
0.000555895
0.000567844
0.000578899
0.00058803
0.000596378
0.000603131
0.000609004
0.000613109
0.000616774
0.000619003
0.000620265
0.00062011
0.000619964
0.000618213
0.000615353
0.0006118
0.000608467
0.000602679
0.000595937
0.000589606
0.000582573
0.000571499
0.000560611
0.000550625
0.000540558
0.000527646
0.000510172
0.000485885
0.000462899
0.000434358
0.00039589
0.000354976
0.000303294
0.000235924
0.000172565
8.6885e-05
-2.55175e-05
-0.000122549
-0.000236184
-0.000380112
-0.000511193
-0.000632048
-0.000757348
-0.000886567
-0.000972874
-0.00104824
-0.00112067
-0.00115057
-0.00116567
-0.00119159
-0.00117643
-0.00115252
-0.0011412
-0.00111486
-0.00107937
-0.00104257
-0.00100753
-0.000974244
-0.000932073
-0.000888868
-0.000850244
-0.000810531
-0.00076529
-0.000721749
-0.00067967
-0.000636161
-0.000590228
-0.000546187
-0.000502025
-0.000457206
-0.00041157
-0.000367627
-0.000323131
-0.00027889
-0.000234632
-0.0001919
-0.000148763
-0.000106653
-6.48896e-05
-2.46412e-05
1.56297e-05
5.43471e-05
9.25396e-05
0.000129083
0.000165257
0.00019957
0.000233228
0.000265046
0.000296201
0.000325341
0.000353711
0.000380079
0.000405619
0.000429094
0.000451708
0.000472248
0.000491925
0.00050956
0.000526288
0.000540996
0.000554916
0.000566853
0.00057791
0.00058715
0.000595733
0.000602383
0.00060831
0.000612762
0.000616609
0.000618564
0.000620181
0.000620654
0.000620323
0.00061828
0.000616536
0.000613582
0.000609314
0.000603971
0.000599491
0.000592702
0.000584138
0.000575856
0.000567686
0.000554602
0.000551532
0.000540109
0.000521724
0.000499198
0.000479395
0.00045289
0.00041386
0.000366484
0.000318663
0.000263841
0.000174167
6.51394e-05
-8.61323e-06
-0.000127893
-0.0003129
-0.000426047
-0.000547866
-0.000738747
-0.000871829
-0.000978444
-0.00110249
-0.00116265
-0.00121737
-0.00128251
-0.00126142
-0.00123631
-0.00125351
-0.00122646
-0.00117135
-0.00113001
-0.00110434
-0.00106688
-0.00100931
-0.000967139
-0.000934934
-0.000889287
-0.000839034
-0.000799964
-0.000760123
-0.000713679
-0.000668091
-0.000627371
-0.000583584
-0.000537933
-0.000493668
-0.000451158
-0.000406224
-0.000361745
-0.000318102
-0.000275274
-0.000231189
-0.000188518
-0.000146232
-0.000104844
-6.31297e-05
-2.3173e-05
1.652e-05
5.49078e-05
9.30439e-05
0.000129279
0.000165143
0.000199305
0.000232893
0.00026448
0.00029551
0.00032457
0.000352883
0.000379118
0.000404646
0.000428069
0.000450665
0.000471169
0.000490895
0.000508488
0.000525264
0.000540024
0.000554009
0.000565922
0.000577138
0.000586495
0.00059511
0.000601813
0.000608066
0.000612625
0.000616464
0.000618703
0.000620824
0.000621271
0.000621026
0.000619727
0.000618541
0.000615347
0.000611653
0.000607707
0.000603512
0.000596454
0.000589661
0.000583282
0.000574661
0.000562072
0.000567427
0.000550641
0.000537821
0.000526045
0.000499911
0.000467468
0.00044263
0.000400043
0.000337616
0.000276536
0.00019361
8.80996e-05
-2.12329e-05
-0.000173688
-0.000323412
-0.000472275
-0.000660135
-0.000827
-0.000983892
-0.00110889
-0.00124416
-0.00132903
-0.00134613
-0.00137057
-0.00139134
-0.00134821
-0.0013148
-0.00127487
-0.00122577
-0.00118155
-0.00112099
-0.00107298
-0.00103101
-0.000977346
-0.000925757
-0.000884716
-0.000840301
-0.000792112
-0.000747219
-0.000705994
-0.000661345
-0.000616391
-0.000573189
-0.00053084
-0.000486121
-0.00044251
-0.000399431
-0.000356514
-0.000312434
-0.000269927
-0.000227326
-0.000185231
-0.000142861
-0.000102144
-6.12664e-05
-2.15085e-05
1.80332e-05
5.58646e-05
9.3616e-05
0.000129743
0.000165401
0.000199218
0.000232653
0.000264149
0.000295026
0.000323903
0.000352169
0.000378342
0.000403792
0.000427131
0.000449751
0.000470235
0.000489937
0.000507521
0.000524398
0.000539167
0.00055316
0.00056517
0.00057657
0.00058591
0.000594602
0.000601599
0.000608054
0.00061252
0.000616684
0.000619485
0.000621635
0.000622015
0.00062272
0.000622123
0.000620516
0.000617836
0.000616173
0.000612416
0.000607353
0.000602791
0.000599014
0.00059084
0.000582275
0.000576373
0.000581952
0.000571062
0.000562299
0.000547961
0.000525534
0.000501368
0.000474035
0.000431862
0.000373951
0.000298227
0.000221249
0.000129355
-4.75259e-05
-0.000215208
-0.000300125
-0.000539275
-0.000785767
-0.000896229
-0.00110009
-0.00128629
-0.00136883
-0.00148482
-0.00153053
-0.00146147
-0.00148988
-0.00148694
-0.00138305
-0.00131902
-0.00127799
-0.00123102
-0.00115348
-0.00108238
-0.00104101
-0.000991462
-0.0009279
-0.000878148
-0.000836329
-0.000788035
-0.000737986
-0.000695346
-0.000652728
-0.000607373
-0.000562682
-0.000521265
-0.000478122
-0.000434395
-0.000391364
-0.000349809
-0.000306739
-0.000264313
-0.000222291
-0.000181269
-0.000139438
-9.89269e-05
-5.86679e-05
-1.95615e-05
1.97033e-05
5.72838e-05
9.45767e-05
0.000130366
0.000165862
0.000199457
0.000232621
0.000263957
0.000294726
0.000323453
0.000351597
0.000377694
0.000403084
0.000426363
0.000448955
0.000469404
0.000489114
0.000506727
0.000523624
0.000538395
0.000552504
0.000564612
0.000576038
0.000585478
0.000594441
0.000601539
0.000608044
0.000612853
0.000617431
0.00062025
0.000622656
0.000623814
0.000624924
0.000624295
0.000623602
0.000622191
0.000620645
0.000617275
0.000614439
0.00061125
0.00060718
0.000601095
0.000596444
0.000590829
0.000600114
0.000599332
0.000588183
0.000569077
0.000563046
0.000549153
0.00050384
0.000463415
0.000433452
0.00035082
0.00024043
0.000141721
-3.77266e-06
-0.000183845
-0.000398402
-0.000612215
-0.000741504
-0.000990743
-0.00124581
-0.00144415
-0.00151379
-0.00158776
-0.00167684
-0.00166977
-0.00156434
-0.00151563
-0.00145998
-0.00142167
-0.00133075
-0.0012299
-0.00118602
-0.00112641
-0.00104352
-0.000985505
-0.000939973
-0.000883027
-0.000825223
-0.000779875
-0.000735094
-0.000686115
-0.000639766
-0.000598438
-0.000554669
-0.000510211
-0.000467831
-0.000426866
-0.000383672
-0.000341413
-0.000300018
-0.000258989
-0.000216817
-0.00017614
-0.000135615
-9.56858e-05
-5.55015e-05
-1.69595e-05
2.15487e-05
5.88938e-05
9.59847e-05
0.00013133
0.00016645
0.000199927
0.000232886
0.000263955
0.000294555
0.000323214
0.000351211
0.00037718
0.000402513
0.000425765
0.000448279
0.000468699
0.000488437
0.000506061
0.000522939
0.000537782
0.000552001
0.000564138
0.000575625
0.000585288
0.000594417
0.000601541
0.000608298
0.000613546
0.000618257
0.000621168
0.000624273
0.000626066
0.000627134
0.000627012
0.00062784
0.000626974
0.0006252
0.000623679
0.000623413
0.000619877
0.000616139
0.000615049
0.00061307
0.000604815
0.000625041
0.000620956
0.000615661
0.000610529
0.000601227
0.00058111
0.000558328
0.000527982
0.000473101
0.000403201
0.0003097
0.000167031
4.76046e-05
-0.00011911
-0.000482004
-0.000642292
-0.000701026
-0.00104292
-0.00124649
-0.00148753
-0.00175673
-0.00180274
-0.00170758
-0.00176892
-0.00165483
-0.0015695
-0.00155121
-0.0014625
-0.00136948
-0.00126927
-0.00119872
-0.00113892
-0.00106159
-0.000993302
-0.000938257
-0.000881817
-0.00082413
-0.000773474
-0.000725991
-0.000678122
-0.000630901
-0.000587417
-0.000544399
-0.00050114
-0.000458118
-0.000417111
-0.000375545
-0.000334011
-0.000292548
-0.000252343
-0.000211443
-0.000171132
-0.000130939
-9.18545e-05
-5.24035e-05
-1.40945e-05
2.39738e-05
6.07495e-05
9.74591e-05
0.000132615
0.000167371
0.00020054
0.000233292
0.000264217
0.000294584
0.000323099
0.000350977
0.00037687
0.000402085
0.00042528
0.000447747
0.000468171
0.000487864
0.00050549
0.00052242
0.000537338
0.000551546
0.000563779
0.000575458
0.000585217
0.000594377
0.000601818
0.000608905
0.000614186
0.000619134
0.000622767
0.000626187
0.000627973
0.000629939
0.000630994
0.000631807
0.000631387
0.00063187
0.000631521
0.000630802
0.000629635
0.000629854
0.000628654
0.000626996
0.000625668
0.000649849
0.000644668
0.000649132
0.000654696
0.000639113
0.000622494
0.000627936
0.000596707
0.000516145
0.000471553
0.000414649
0.000239483
6.30193e-05
-6.87436e-05
-0.000293578
-0.000614916
-0.000974282
-0.000950928
-0.00105363
-0.00134134
-0.00138373
-0.00168915
-0.00180977
-0.0016293
-0.00171538
-0.00172894
-0.00164466
-0.00143781
-0.00136929
-0.00133894
-0.00121827
-0.00112303
-0.00107596
-0.00101195
-0.000933262
-0.000874942
-0.000826599
-0.000769875
-0.000714323
-0.000669582
-0.000624866
-0.000576956
-0.000532422
-0.000492267
-0.000449831
-0.000406994
-0.000366327
-0.000326844
-0.000285519
-0.000245063
-0.000205465
-0.000166245
-0.000126197
-8.74718e-05
-4.90079e-05
-1.121e-05
2.66399e-05
6.29795e-05
9.90959e-05
0.000134017
0.000168539
0.000201389
0.000233824
0.000264636
0.000294808
0.000323145
0.000350869
0.000376713
0.000401798
0.000424929
0.000447345
0.000467768
0.000487399
0.000505061
0.000522019
0.000536975
0.000551206
0.000563591
0.000575364
0.000585202
0.000594533
0.000602274
0.000609491
0.000614954
0.000620362
0.00062445
0.000628014
0.000630299
0.000633224
0.000634818
0.000635872
0.000636767
0.000638934
0.000639009
0.000639033
0.000640988
0.000643653
0.000642307
0.000643321
0.000648691
0.00067215
0.000680216
0.000684213
0.000684353
0.000690586
0.000692133
0.000673058
0.000649357
0.000635049
0.00056843
0.000445576
0.000357643
0.00021134
-2.27984e-05
-6.23675e-05
-0.000478173
-0.00113995
-0.00061152
-0.000549989
-0.00102537
-0.000605293
-0.00102099
-0.00124203
-0.00110437
-0.00166415
-0.00179955
-0.00158418
-0.00151158
-0.0014007
-0.0013098
-0.00122982
-0.00115269
-0.00107727
-0.00100327
-0.000938516
-0.000878587
-0.000818565
-0.000762954
-0.000711187
-0.000661202
-0.000613587
-0.000568938
-0.000524454
-0.000481351
-0.000439932
-0.000399328
-0.000358053
-0.000318037
-0.000278462
-0.000239034
-0.000199218
-0.000160527
-0.000121757
-8.34359e-05
-4.51467e-05
-8.00791e-06
2.9128e-05
6.5278e-05
0.000101077
0.000135539
0.000169696
0.000202421
0.000234572
0.000265137
0.000295118
0.000323375
0.000350908
0.000376643
0.000401629
0.000424742
0.000447051
0.000467449
0.000487069
0.000504778
0.000521681
0.000536698
0.000551036
0.000563503
0.000575263
0.000585335
0.000594904
0.000602689
0.000610042
0.000616076
0.000621742
0.000625811
0.000630027
0.000633314
0.000636213
0.000638062
0.000640965
0.000642945
0.000644525
0.000646405
0.000650037
0.000651956
0.000654273
0.000658904
0.000664327
0.000666782
0.00069691
0.000711896
0.000719252
0.000722366
0.000741028
0.000753485
0.000733916
0.000727122
0.000739606
0.000662772
0.000541491
0.000502534
0.000389491
0.000117026
-8.98643e-05
-0.000362245
-0.000638972
-0.000460085
-0.000348564
-0.000479415
-0.000507652
-0.000625533
-0.000526938
-0.00061488
-0.00112647
-0.00145632
-0.00150378
-0.0015726
-0.00143756
-0.0012796
-0.00123476
-0.0011696
-0.0010705
-0.00099897
-0.000945667
-0.00087833
-0.000809574
-0.000757375
-0.000708557
-0.000653954
-0.000603197
-0.000560617
-0.000517305
-0.000472212
-0.000430274
-0.000391324
-0.000350752
-0.000310175
-0.000271179
-0.000232968
-0.000193631
-0.000155042
-0.000117059
-7.94926e-05
-4.15614e-05
-4.72958e-06
3.17772e-05
6.75153e-05
0.000103032
0.000137205
0.000170953
0.00020347
0.000235401
0.000265771
0.000295514
0.000323676
0.000351051
0.000376692
0.000401558
0.00042464
0.000446855
0.000467251
0.00048683
0.000504557
0.000521445
0.000536551
0.000550905
0.000563448
0.00057531
0.000585562
0.000595196
0.000603178
0.000610815
0.000617104
0.000622929
0.000627466
0.000632204
0.000635815
0.000639152
0.000641975
0.000645666
0.000648165
0.000650858
0.000654503
0.000659359
0.000662358
0.000666984
0.000674859
0.000682566
0.000686885
0.000723828
0.000733145
0.000752905
0.000774625
0.000783887
0.000796204
0.000823927
0.000823886
0.00078349
0.000783674
0.000791364
0.000604932
0.000401279
0.000211716
-0.000163483
-0.000332985
-0.000421013
-0.00056014
-0.000582949
-0.000419977
-0.000517195
-0.00045389
-0.000417313
-0.00044937
-0.000618014
-0.000917918
-0.0013294
-0.00144716
-0.00138243
-0.00133169
-0.0012417
-0.00114134
-0.00107269
-0.0010114
-0.000935986
-0.000869175
-0.000813838
-0.000754631
-0.000696223
-0.000647597
-0.000600563
-0.00055154
-0.000506593
-0.000465965
-0.000423969
-0.000382149
-0.00034288
-0.000304524
-0.000264912
-0.000226215
-0.000188422
-0.000150689
-0.000112477
-7.53121e-05
-3.83979e-05
-1.8581e-06
3.45343e-05
6.97847e-05
0.00010476
0.000138811
0.000172327
0.000204516
0.000236176
0.000266473
0.000296008
0.000324002
0.000351237
0.000376846
0.000401569
0.000424589
0.000446747
0.000467161
0.000486654
0.000504397
0.000521318
0.000536483
0.000550789
0.000563468
0.000575474
0.000585775
0.000595445
0.0006038
0.000611639
0.000617915
0.00062409
0.000629356
0.000634132
0.000637814
0.000642344
0.000646096
0.000649321
0.000652807
0.000658189
0.000662062
0.000666132
0.000673182
0.000681846
0.000687445
0.000696612
0.00071146
0.000745592
0.000760677
0.000783958
0.000813075
0.000832786
0.000849079
0.000887275
0.000913481
0.000893662
0.000896198
0.000912498
0.000840803
0.000597007
2.2511e-05
-0.000417309
-0.000437145
-0.0005014
-0.000534034
-0.000493163
-0.000452339
-0.0005162
-0.000440462
-0.000404193
-0.000421166
-0.000448544
-0.000483224
-0.000842344
-0.00128914
-0.00141311
-0.00132574
-0.00119745
-0.00113506
-0.00108714
-0.00100754
-0.000926017
-0.000867337
-0.000812452
-0.000749677
-0.000690622
-0.000641621
-0.000594296
-0.000545444
-0.00049979
-0.000458536
-0.000417341
-0.000375972
-0.000336317
-0.000298211
-0.00025955
-0.00022114
-0.000183439
-0.000146284
-0.000108751
-7.17994e-05
-3.52102e-05
8.3258e-07
3.68119e-05
7.18776e-05
0.000106518
0.000140257
0.000173523
0.000205565
0.000236974
0.00026711
0.000296485
0.000324386
0.000351465
0.000377005
0.000401627
0.00042462
0.000446695
0.000467095
0.000486549
0.000504334
0.000521217
0.000536421
0.000550781
0.000563554
0.000575551
0.000586002
0.000595849
0.000604307
0.000612218
0.000618879
0.000625327
0.00063067
0.000635824
0.00064026
0.000644999
0.00064898
0.00065336
0.000657875
0.000663279
0.000668313
0.000674745
0.000682642
0.000691888
0.000700949
0.000713283
0.00072929
0.000762415
0.000791763
0.000812684
0.000834294
0.000877385
0.000917717
0.000936324
0.0009685
0.00102558
0.00102274
0.000974763
0.0010848
0.000778293
-0.000135666
-0.000550698
-0.000511748
-0.000468159
-0.000441761
-0.000481861
-0.000523394
-0.000429964
-0.000426228
-0.000472872
-0.000426852
-0.000325342
-0.000320323
-0.000549454
-0.00108298
-0.00134404
-0.0012646
-0.00121185
-0.00115349
-0.00106186
-0.000988497
-0.000938206
-0.000871624
-0.000797228
-0.000742677
-0.000694303
-0.000636886
-0.000583592
-0.000541005
-0.000497493
-0.000451361
-0.000409882
-0.00037189
-0.000331917
-0.000292057
-0.000254576
-0.000217575
-0.000179414
-0.000142089
-0.000105605
-6.91313e-05
-3.24161e-05
3.31495e-06
3.86694e-05
7.35839e-05
0.000108127
0.000141555
0.000174503
0.000206481
0.000237734
0.000267677
0.000296894
0.000324762
0.000351709
0.000377158
0.000401705
0.000424695
0.000446679
0.000467059
0.000486502
0.000504316
0.000521141
0.0005364
0.000550822
0.000563636
0.000575616
0.000586256
0.000596231
0.000604694
0.000612731
0.000619814
0.000626344
0.000631677
0.000637404
0.000642486
0.000647008
0.000651341
0.000657245
0.000662175
0.000666924
0.000673934
0.000683107
0.000689889
0.000699077
0.000714386
0.00072941
0.000740918
0.000779258
0.000805044
0.000835814
0.000867894
0.000907038
0.000955403
0.000995565
0.00103117
0.00109931
0.0011423
0.00113273
0.00118318
0.000383249
-0.00041749
-0.000430429
-0.000477197
-0.000484979
-0.000475003
-0.000477797
-0.000473765
-0.00043378
-0.000445895
-0.000417231
-0.00038758
-0.000347367
-0.000352409
-0.00036707
-0.000801259
-0.00126963
-0.00124329
-0.00121525
-0.00113389
-0.0010545
-0.000995265
-0.000931129
-0.000862109
-0.000799623
-0.000741907
-0.000685761
-0.000632863
-0.000583085
-0.000535759
-0.000491001
-0.000448334
-0.000406674
-0.000366459
-0.000327469
-0.000289114
-0.00025096
-0.000213562
-0.000176462
-0.000139593
-0.000102821
-6.66151e-05
-3.0543e-05
5.08136e-06
4.04055e-05
7.4994e-05
0.00010922
0.000142607
0.000175414
0.000207181
0.000238281
0.000268188
0.000297274
0.000325036
0.000351903
0.000377333
0.00040179
0.000424738
0.000446687
0.000467083
0.000486466
0.00050428
0.00052113
0.000536433
0.000550804
0.000563692
0.000575784
0.000586445
0.000596393
0.000605113
0.000613311
0.000620309
0.000627017
0.000632914
0.000638625
0.000643581
0.000648957
0.000654014
0.00065933
0.000664795
0.000671641
0.000678609
0.000686762
0.000696637
0.000708706
0.00072163
0.000737828
0.000757183
0.000791265
0.000812421
0.000851315
0.000897053
0.000928883
0.000968914
0.00104007
0.00110834
0.0011467
0.00119232
0.00130283
0.00107153
5.10746e-05
-0.000501056
-0.000393598
-0.000455443
-0.000503867
-0.000489472
-0.00044315
-0.000432364
-0.000472801
-0.000451412
-0.000376694
-0.000375249
-0.000382282
-0.000323096
-0.000284059
-0.000598247
-0.00112855
-0.00126591
-0.00117494
-0.00110568
-0.00106915
-0.00100319
-0.000915553
-0.000854099
-0.000806058
-0.000741586
-0.000677238
-0.000629814
-0.00058408
-0.000532296
-0.000485731
-0.000446202
-0.000405024
-0.00036276
-0.000324087
-0.000287159
-0.000248722
-0.000210752
-0.000174303
-0.000137958
-0.000100989
-6.48205e-05
-2.92158e-05
6.24683e-06
4.15925e-05
7.60079e-05
0.000109979
0.000143315
0.000176056
0.000207685
0.000238659
0.000268543
0.000297551
0.000325237
0.000352042
0.000377462
0.00040186
0.000424778
0.000446702
0.000467105
0.000486448
0.000504269
0.000521132
0.000536455
0.000550801
0.000563751
0.000575895
0.000586568
0.000596535
0.000605416
0.000613675
0.000620662
0.00062754
0.000633733
0.000639408
0.00064442
0.00065035
0.000655721
0.000660762
0.000666792
0.000674828
0.000681612
0.000689429
0.000701529
0.000715189
0.000726353
0.000743722
0.000769125
0.00079485
0.000828253
0.000858607
0.000894038
0.000946593
0.00100135
0.00105064
0.00111221
0.00118323
0.00128737
0.00141219
0.000964234
9.50474e-05
-0.000469331
-0.000512046
-0.000469169
-0.000441573
-0.000461873
-0.000477796
-0.000463972
-0.000431832
-0.000409015
-0.000420459
-0.000383206
-0.000348584
-0.000312159
-0.000259237
-0.000537359
-0.000988611
-0.00122166
-0.00118193
-0.00113066
-0.0010521
-0.000981852
-0.000928583
-0.000863363
-0.000792361
-0.000735979
-0.000685272
-0.000629015
-0.000576339
-0.000532021
-0.000488054
-0.000442949
-0.000401524
-0.000362979
-0.000323574
-0.000284519
-0.000247247
-0.000210488
-0.000173127
-0.000136399
-0.000100302
-6.43149e-05
-2.8271e-05
7.0359e-06
4.19734e-05
7.64608e-05
0.000110534
0.000143677
0.000176278
0.000207974
0.000238919
0.00026869
0.00029766
0.000325376
0.000352132
0.000377501
0.000401892
0.000424828
0.00044671
0.000467089
0.000486453
0.000504297
0.000521105
0.000536438
0.000550857
0.000563798
0.000575863
0.000586653
0.000596732
0.000605477
0.000613723
0.000621059
0.000627909
0.000633769
0.000639849
0.000645412
0.000650708
0.000655908
0.00066238
0.000668408
0.000674785
0.000683067
0.000693401
0.00070285
0.000715047
0.00073226
0.000750439
0.00076815
0.00079485
0.000828253
0.000858607
0.000894038
0.000946593
0.00100135
0.00105064
0.00111221
0.00118323
0.00128737
0.00141219
0.000964234
9.50474e-05
-0.000469331
-0.000512046
-0.000469169
-0.000441573
-0.000461873
-0.000477796
-0.000463972
-0.000431832
-0.000409015
-0.000420459
-0.000383206
-0.000348584
-0.000312159
-0.000259237
-0.000537359
-0.000988611
-0.00122166
-0.00118193
-0.00113066
-0.0010521
-0.000981852
-0.000928583
-0.000863363
-0.000792361
-0.000735979
-0.000685272
-0.000629015
-0.000576339
-0.000532021
-0.000488054
-0.000442949
-0.000401524
-0.000362979
-0.000323574
-0.000284519
-0.000247247
-0.000210488
-0.000173127
-0.000136399
-0.000100302
-6.43149e-05
-2.8271e-05
7.0359e-06
4.19734e-05
7.64608e-05
0.000110534
0.000143677
0.000176278
0.000207974
0.000238919
0.00026869
0.00029766
0.000325376
0.000352132
0.000377501
0.000401892
0.000424828
0.00044671
0.000467089
0.000486453
0.000504297
0.000521105
0.000536438
0.000550857
0.000563798
0.000575863
0.000586653
0.000596732
0.000605477
0.000613723
0.000621059
0.000627909
0.000633769
0.000639849
0.000645412
0.000650708
0.000655908
0.00066238
0.000668408
0.000674785
0.000683067
0.000693401
0.00070285
0.000715047
0.00073226
0.000750439
0.00076815
0.000791265
0.000812421
0.000851315
0.000897053
0.000928883
0.000968914
0.00104007
0.00110834
0.0011467
0.00119232
0.00130283
0.00107153
5.10746e-05
-0.000501056
-0.000393598
-0.000455443
-0.000503867
-0.000489472
-0.00044315
-0.000432364
-0.000472801
-0.000451412
-0.000376694
-0.000375249
-0.000382282
-0.000323096
-0.000284059
-0.000598247
-0.00112855
-0.00126591
-0.00117494
-0.00110568
-0.00106915
-0.00100319
-0.000915553
-0.000854099
-0.000806058
-0.000741586
-0.000677238
-0.000629814
-0.00058408
-0.000532296
-0.000485731
-0.000446202
-0.000405024
-0.00036276
-0.000324087
-0.000287159
-0.000248722
-0.000210752
-0.000174303
-0.000137958
-0.000100989
-6.48205e-05
-2.92158e-05
6.24683e-06
4.15925e-05
7.60079e-05
0.000109979
0.000143315
0.000176056
0.000207685
0.000238659
0.000268543
0.000297551
0.000325237
0.000352042
0.000377462
0.00040186
0.000424778
0.000446702
0.000467105
0.000486448
0.000504269
0.000521132
0.000536455
0.000550801
0.000563751
0.000575895
0.000586568
0.000596535
0.000605416
0.000613675
0.000620662
0.00062754
0.000633733
0.000639408
0.00064442
0.00065035
0.000655721
0.000660762
0.000666792
0.000674828
0.000681612
0.000689429
0.000701529
0.000715189
0.000726353
0.000743722
0.000769125
0.000779258
0.000805044