# vtk DataFile Version 3.0
fluid_state
ASCII
DATASET RECTILINEAR_GRID
DIMENSIONS 100 40 1
X_COORDINATES 100 float
0.5 1.5 2.5 3.5 4.5 5.5 6.5 7.5 8.5 9.5 10.5 11.5 12.5 13.5 14.5 15.5 16.5 17.5 18.5 19.5 20.5 21.5 22.5 23.5 24.5 25.5 26.5 27.5 28.5 29.5 30.5 31.5 32.5 33.5 34.5 35.5 36.5 37.5 38.5 39.5 40.5 41.5 42.5 43.5 44.5 45.5 46.5 47.5 48.5 49.5 50.5 51.5 52.5 53.5 54.5 55.5 56.5 57.5 58.5 59.5 60.5 61.5 62.5 63.5 64.5 65.5 66.5 67.5 68.5 69.5 70.5 71.5 72.5 73.5 74.5 75.5 76.5 77.5 78.5 79.5 80.5 81.5 82.5 83.5 84.5 85.5 86.5 87.5 88.5 89.5 90.5 91.5 92.5 93.5 94.5 95.5 96.5 97.5 98.5 99.5 
Y_COORDINATES 40 float
0.5 1.5 2.5 3.5 4.5 5.5 6.5 7.5 8.5 9.5 10.5 11.5 12.5 13.5 14.5 15.5 16.5 17.5 18.5 19.5 20.5 21.5 22.5 23.5 24.5 25.5 26.5 27.5 28.5 29.5 30.5 31.5 32.5 33.5 34.5 35.5 36.5 37.5 38.5 39.5 
Z_COORDINATES 1 float
0
POINT_DATA 4000
SCALARS density_difference float 1
LOOKUP_TABLE default
0.000730894
0.000768888
0.000805571
0.000840974
0.000870552
0.000892777
0.000909492
0.000923437
0.000928042
0.000915801
0.000900719
0.000880774
0.000836107
0.00078359
0.000730623
0.0006568
0.000576129
0.00049645
0.000405321
0.00031821
0.000238582
0.000151434
7.88526e-05
2.10746e-05
-4.15216e-05
-8.99199e-05
-0.000121653
-0.000157507
-0.000184119
-0.00019736
-0.000213683
-0.000228273
-0.000234442
-0.000239857
-0.000248126
-0.000255158
-0.000259194
-0.000264525
-0.000272854
-0.000280789
-0.000287531
-0.000296419
-0.000307368
-0.000317815
-0.000328089
-0.000340166
-0.000352999
-0.000365226
-0.000377533
-0.000390722
-0.000403619
-0.000415779
-0.000427737
-0.000439582
-0.00045042
-0.000460308
-0.000469452
-0.00047766
-0.000484408
-0.000489895
-0.000494066
-0.000496725
-0.000497616
-0.000496898
-0.000494401
-0.000490038
-0.000483675
-0.000475399
-0.000465063
-0.00045267
-0.000438117
-0.000421475
-0.000402684
-0.000381775
-0.000358646
-0.000333447
-0.000306195
-0.000276856
-0.000245398
-0.000212137
-0.000177037
-0.000139955
-0.000101116
-6.09814e-05
-1.92031e-05
2.43271e-05
6.88374e-05
0.000114061
0.000160923
0.00020889
0.000256577
0.000304771
0.000354654
0.000404002
0.000451766
0.000500659
0.000550319
0.000596619
0.000641196
0.000687316
0.000722511
0.000760395
0.000797508
0.000830515
0.000857296
0.000876916
0.000894751
0.000908869
0.000904668
0.000890857
0.000885024
0.000857289
0.000803997
0.000761625
0.000712524
0.000632322
0.000552096
0.000482292
0.000397942
0.000306335
0.000232451
0.00015698
8.21399e-05
2.91744e-05
-2.48733e-05
-8.03677e-05
-0.000107244
-0.000132212
-0.000168872
-0.000186393
-0.000191835
-0.000208167
-0.000223465
-0.000228054
-0.000231631
-0.000242215
-0.000251494
-0.000255924
-0.000262198
-0.000273252
-0.000282734
-0.000290668
-0.000300954
-0.000313691
-0.000325022
-0.000336349
-0.000349187
-0.000362857
-0.000375313
-0.000388057
-0.000401191
-0.000414129
-0.000425856
-0.000437538
-0.00044861
-0.000458829
-0.000467671
-0.000475902
-0.00048277
-0.000488348
-0.000492279
-0.000495034
-0.00049592
-0.000495205
-0.000492554
-0.000488282
-0.000481837
-0.000473572
-0.000463145
-0.00045081
-0.000436165
-0.000419591
-0.000400739
-0.000379861
-0.000356705
-0.000331646
-0.000304314
-0.000275026
-0.000243686
-0.000210591
-0.000175344
-0.000138454
-9.9924e-05
-5.98379e-05
-1.78757e-05
2.50926e-05
6.92031e-05
0.00011471
0.000161505
0.000208306
0.000255914
0.000304745
0.000353634
0.000401353
0.000449996
0.000499154
0.000546244
0.000591421
0.000637677
0.000682254
0.000716785
0.000757761
0.000792355
0.000820108
0.000847875
0.000871987
0.000886152
0.000889445
0.000890591
0.000888188
0.00086406
0.000826078
0.000798261
0.000748499
0.000674005
0.000612837
0.00054254
0.000452014
0.000374762
0.000295287
0.000210289
0.000146548
8.06295e-05
1.26444e-05
-2.66725e-05
-6.5045e-05
-0.000110197
-0.000133663
-0.000149411
-0.000173459
-0.000189311
-0.00019699
-0.000205705
-0.000217933
-0.000225974
-0.00023092
-0.000238593
-0.000249374
-0.000256963
-0.000264478
-0.00027494
-0.000286819
-0.000296654
-0.000307851
-0.000320728
-0.000333887
-0.000345875
-0.000359228
-0.000372867
-0.000386202
-0.000398671
-0.000411823
-0.000424187
-0.000435912
-0.000446619
-0.000457159
-0.000466214
-0.000474343
-0.000481055
-0.000486874
-0.000490784
-0.000493455
-0.000494278
-0.000493695
-0.000490936
-0.000486629
-0.000480146
-0.000471946
-0.000461398
-0.000449074
-0.000434408
-0.000417874
-0.000398915
-0.000378105
-0.000354961
-0.000329923
-0.000302518
-0.000273397
-0.000242089
-0.000208971
-0.000173751
-0.000137173
-9.86058e-05
-5.84504e-05
-1.67775e-05
2.57678e-05
7.01775e-05
0.000115636
0.000161634
0.000208191
0.000256535
0.000304651
0.000352151
0.000400513
0.000450024
0.000496871
0.000542665
0.000590063
0.000635973
0.000676326
0.000717206
0.000754076
0.000787462
0.000818816
0.000845458
0.000866053
0.000880192
0.000883755
0.000886162
0.00087973
0.00084843
0.00081684
0.000788344
0.000724028
0.000651189
0.000591165
0.000514829
0.000419203
0.000336241
0.000264007
0.000179513
0.000107057
5.28791e-05
-9.34055e-06
-5.337e-05
-7.74976e-05
-0.000116661
-0.000147173
-0.000151566
-0.000166732
-0.000187414
-0.00019537
-0.000197746
-0.000207556
-0.000218837
-0.00022515
-0.000229744
-0.000240037
-0.000250587
-0.000259002
-0.000267821
-0.000280361
-0.000292236
-0.00030365
-0.000315762
-0.0003299
-0.000342979
-0.000356182
-0.000369592
-0.000383782
-0.000396641
-0.000409582
-0.000422
-0.00043428
-0.000444985
-0.000455411
-0.00046459
-0.000472984
-0.000479557
-0.000485364
-0.000489346
-0.000492097
-0.000492778
-0.000492228
-0.000489461
-0.000485165
-0.000478579
-0.00047041
-0.00045981
-0.000447504
-0.000432766
-0.000416244
-0.00039725
-0.0003765
-0.000353278
-0.000328258
-0.0003009
-0.000271856
-0.000240426
-0.000207411
-0.000172359
-0.000135772
-9.70544e-05
-5.72409e-05
-1.57776e-05
2.70283e-05
7.14168e-05
0.000116143
0.000162224
0.000209334
0.000256986
0.000304133
0.000352607
0.000401294
0.000448844
0.000495446
0.000543387
0.000589431
0.000632485
0.000674922
0.000718248
0.000752269
0.000788844
0.000822946
0.000845974
0.000862614
0.000880351
0.000890449
0.000883834
0.000863368
0.000849008
0.000823219
0.000755502
0.000694921
0.000650572
0.000553134
0.000455025
0.000385602
0.000290507
0.000196816
0.000129733
4.73606e-05
-9.27881e-06
-4.13393e-05
-9.56724e-05
-0.000132791
-0.000134198
-0.000154892
-0.000178881
-0.000182768
-0.00018242
-0.000192798
-0.00020365
-0.000205815
-0.000207594
-0.00021868
-0.000227817
-0.000232795
-0.000240589
-0.000253582
-0.00026375
-0.000273405
-0.000285548
-0.000299846
-0.000311872
-0.000324861
-0.000338944
-0.000353572
-0.000366515
-0.000380489
-0.000394196
-0.000407668
-0.000419678
-0.000432125
-0.000443306
-0.000453837
-0.000462773
-0.000471402
-0.000478137
-0.000483908
-0.000487768
-0.000490692
-0.000491354
-0.000490756
-0.000487925
-0.000483722
-0.000477043
-0.000468854
-0.000458215
-0.000445948
-0.000431105
-0.000414606
-0.000395591
-0.000374844
-0.000351542
-0.000326607
-0.000299231
-0.000270156
-0.000238717
-0.000205861
-0.000170738
-0.000134096
-9.55255e-05
-5.59042e-05
-1.42063e-05
2.85809e-05
7.25591e-05
0.000117254
0.000163831
0.000210561
0.000257542
0.000305257
0.000354352
0.000401787
0.000448867
0.000497214
0.000545109
0.000588691
0.000632732
0.000678007
0.00071917
0.000760013
0.000795963
0.000823032
0.000850866
0.000874241
0.00088513
0.000890868
0.000888519
0.000869263
0.000849183
0.000808547
0.00074158
0.00068622
0.000611933
0.000505493
0.000411192
0.000320794
0.000220442
0.00011385
4.26225e-05
-2.47604e-05
-9.20679e-05
-0.000125368
-0.000150252
-0.000187342
-0.000189929
-0.000187876
-0.000203053
-0.000205301
-0.000199064
-0.000199739
-0.000203819
-0.000207813
-0.000208412
-0.000212703
-0.000220505
-0.000228825
-0.000235415
-0.000245383
-0.00025682
-0.000268685
-0.000279744
-0.000293338
-0.000307007
-0.000320958
-0.000334302
-0.000349274
-0.00036336
-0.000377538
-0.000390915
-0.00040498
-0.000417513
-0.000429897
-0.000441029
-0.000452017
-0.000461066
-0.000469624
-0.000476405
-0.000482418
-0.000486214
-0.000489119
-0.000489806
-0.000489299
-0.000486365
-0.00048217
-0.00047547
-0.000467312
-0.000456579
-0.000444318
-0.000429438
-0.000412968
-0.000393861
-0.000373119
-0.000349817
-0.000324911
-0.00029742
-0.000268393
-0.000237023
-0.000204131
-0.000168868
-0.000132418
-9.39309e-05
-5.40802e-05
-1.23383e-05
3.00125e-05
7.4149e-05
0.000119335
0.000165515
0.000211689
0.000259587
0.000307737
0.000355509
0.000403071
0.000452303
0.000499836
0.000545551
0.0005918
0.00063848
0.000679732
0.000727468
0.000769409
0.00080246
0.000831295
0.000863698
0.000886703
0.000894741
0.000897706
0.000899288
0.000887341
0.000844527
0.000785538
0.000753349
0.000676105
0.00053701
0.000464192
0.000377446
0.000220643
0.000117059
3.04707e-05
-7.49517e-05
-0.000127077
-0.000182394
-0.000247312
-0.000237225
-0.000229316
-0.00026475
-0.000258935
-0.000229842
-0.000223216
-0.000228315
-0.000221976
-0.000206322
-0.000206844
-0.000213983
-0.000213297
-0.000212612
-0.000222507
-0.000232219
-0.000239063
-0.000248197
-0.00026244
-0.000274689
-0.000286802
-0.00030051
-0.00031626
-0.000329914
-0.000344345
-0.000359074
-0.0003743
-0.000387624
-0.000401626
-0.000414751
-0.000427608
-0.000438602
-0.000449721
-0.000459122
-0.000467828
-0.000474499
-0.000480668
-0.000484596
-0.000487513
-0.000488132
-0.000487734
-0.000484795
-0.00048058
-0.000473837
-0.000465728
-0.00045493
-0.000442664
-0.000427752
-0.000411283
-0.000392105
-0.000371394
-0.00034805
-0.000323108
-0.000295586
-0.000266627
-0.000235164
-0.00020222
-0.000167018
-0.000130617
-9.19235e-05
-5.20769e-05
-1.05136e-05
3.19605e-05
7.64483e-05
0.000121424
0.000167413
0.00021415
0.000262422
0.00030998
0.000357958
0.000406805
0.000455979
0.000502588
0.000549818
0.00059795
0.000643279
0.000684177
0.000739857
0.000775152
0.000813727
0.000853438
0.000877456
0.000893287
0.000917614
0.000924522
0.000907328
0.000892593
0.000860184
0.000799545
0.000734689
0.000630848
0.000526046
0.000421278
0.000271841
0.000141068
1.79737e-05
-8.53678e-05
-0.000203783
-0.000278618
-0.000298762
-0.00032853
-0.000357907
-0.000334238
-0.000321599
-0.000309078
-0.000284566
-0.000269304
-0.000248188
-0.000234572
-0.00022692
-0.000217028
-0.000210223
-0.000212404
-0.000214665
-0.000217118
-0.000223183
-0.000233851
-0.000243194
-0.000253952
-0.000266769
-0.000281425
-0.000294508
-0.000309273
-0.000324441
-0.000340032
-0.000354191
-0.000369594
-0.000384075
-0.000398404
-0.000411273
-0.000424605
-0.000436177
-0.000447308
-0.000456683
-0.000465766
-0.000472623
-0.000478751
-0.000482727
-0.000485846
-0.000486468
-0.000486046
-0.000483139
-0.000479003
-0.000472204
-0.000464082
-0.000453284
-0.000441042
-0.000426055
-0.000409574
-0.00039039
-0.00036968
-0.000346238
-0.000321302
-0.000293798
-0.000264785
-0.000233199
-0.000200335
-0.000165146
-0.000128549
-8.97688e-05
-5.01395e-05
-8.40981e-06
3.44815e-05
7.88122e-05
0.000123512
0.00017024
0.000217477
0.000265012
0.000312796
0.000362575
0.000411252
0.000459047
0.000507895
0.000557828
0.000603413
0.000648225
0.000695754
0.000749879
0.000790392
0.00083319
0.000868963
0.000894624
0.000919718
0.000941978
0.000944845
0.00093244
0.000909067
0.000878052
0.000827628
0.000705981
0.000589909
0.00054603
0.000354835
0.000156786
8.6702e-05
-8.68948e-05
-0.000244381
-0.000314607
-0.000421939
-0.000462587
-0.000411817
-0.000452431
-0.000466071
-0.000384957
-0.000350934
-0.000343201
-0.000319397
-0.000276016
-0.000249
-0.000243298
-0.000230963
-0.000213302
-0.000210467
-0.000214059
-0.000214611
-0.000216509
-0.000226415
-0.00023697
-0.000246966
-0.000258589
-0.000274002
-0.000288202
-0.000302709
-0.000317842
-0.000334487
-0.000349352
-0.000364675
-0.000379526
-0.000394653
-0.000407827
-0.000421188
-0.00043316
-0.000444728
-0.000454187
-0.00046336
-0.000470487
-0.000476792
-0.000480774
-0.000483983
-0.000484729
-0.000484351
-0.000481432
-0.00047735
-0.000470571
-0.000462449
-0.000451633
-0.000439397
-0.000424382
-0.000407902
-0.000388682
-0.000367933
-0.000344466
-0.00031954
-0.000291947
-0.000262874
-0.000231311
-0.000198417
-0.000163043
-0.000126431
-8.77164e-05
-4.7879e-05
-5.87352e-06
3.68874e-05
8.12638e-05
0.000126545
0.00017349
0.000220432
0.00026855
0.00031738
0.000366984
0.000415563
0.000465185
0.000515182
0.000564213
0.000611129
0.000659592
0.000706991
0.000763428
0.000813578
0.000852309
0.00088226
0.000924691
0.000958681
0.000959735
0.00096534
0.000983861
0.000947766
0.000881115
0.000835948
0.000743415
0.000609211
0.000450563
0.000287332
0.000205227
3.27569e-06
-0.000217508
-0.000383534
-0.000438634
-0.000511272
-0.000598089
-0.000605195
-0.000522716
-0.000495353
-0.000466656
-0.000445974
-0.00039164
-0.000331766
-0.000312806
-0.000288002
-0.000249855
-0.000232272
-0.000226874
-0.000215971
-0.00020679
-0.00021009
-0.000215436
-0.000219384
-0.000227008
-0.000240417
-0.000252447
-0.000265062
-0.000279979
-0.000296756
-0.000311519
-0.00032743
-0.000343703
-0.00036008
-0.00037461
-0.000389921
-0.000404129
-0.000417829
-0.000429706
-0.000441656
-0.000451651
-0.000460881
-0.000468054
-0.000474646
-0.000478835
-0.000482031
-0.000482853
-0.000482623
-0.000479751
-0.000475647
-0.000468919
-0.000460847
-0.00045001
-0.00043775
-0.000422757
-0.000406271
-0.000386992
-0.000366222
-0.000342764
-0.00031778
-0.000290097
-0.000261032
-0.000229451
-0.000196401
-0.000160936
-0.00012439
-8.55325e-05
-4.53802e-05
-3.3852e-06
3.93031e-05
8.42007e-05
0.000129925
0.000176578
0.000223777
0.000273176
0.000322226
0.000371189
0.000421318
0.000473156
0.000522184
0.000571005
0.000622632
0.000673017
0.000716735
0.000783308
0.000829319
0.000872451
0.00091542
0.000954028
0.000979889
0.00100158
0.00101834
0.0010103
0.000981751
0.00093824
0.000853334
0.000775851
0.0006623
0.000372363
0.000262759
0.000243628
-5.39251e-05
-0.000200556
-0.000407721
-0.000651731
-0.000699978
-0.000637935
-0.000696518
-0.000604062
-0.000543722
-0.000561235
-0.000500928
-0.000426717
-0.000369356
-0.000337439
-0.000306047
-0.000267432
-0.000243248
-0.000230166
-0.000217607
-0.000207656
-0.000206489
-0.000209254
-0.00021374
-0.000220421
-0.000231808
-0.000244407
-0.000257941
-0.000272152
-0.000288772
-0.0003049
-0.000321292
-0.000337356
-0.000354345
-0.000369885
-0.000385345
-0.000399707
-0.000414033
-0.000426422
-0.000438422
-0.000448684
-0.0004583
-0.000465682
-0.000472317
-0.000476724
-0.000480091
-0.000480989
-0.000480794
-0.000478044
-0.000473989
-0.000467287
-0.000459221
-0.000448427
-0.000436169
-0.000421168
-0.000404647
-0.000385378
-0.000364593
-0.000341074
-0.000316026
-0.000288364
-0.000259239
-0.00022751
-0.000194423
-0.000158991
-0.000122226
-8.31429e-05
-4.30697e-05
-9.77563e-07
4.22578e-05
8.73052e-05
0.000132832
0.00018013
0.000228251
0.000277392
0.000326549
0.000377371
0.000428351
0.000479319
0.000530116
0.000582384
0.000633454
0.000683345
0.000733093
0.000802488
0.000846222
0.000898685
0.000950954
0.000981011
0.00100968
0.00105908
0.00107137
0.0010347
0.00103632
0.00102905
0.000897479
0.000775175
0.000713329
0.000539916
0.000278495
-1.95842e-05
3.59884e-05
-0.000110097
-0.000430595
-0.00046002
-0.00068908
-0.000736207
-0.000569118
-0.000669179
-0.000701682
-0.000638118
-0.000491158
-0.000450483
-0.000434487
-0.000355997
-0.000301928
-0.000287963
-0.000262531
-0.000228363
-0.000215261
-0.000212574
-0.000204798
-0.000200484
-0.000207817
-0.000216295
-0.000223463
-0.000234791
-0.000251004
-0.000265527
-0.000280387
-0.000297309
-0.000315396
-0.000331415
-0.000348054
-0.000364682
-0.000380955
-0.000395295
-0.000409817
-0.000422981
-0.000435283
-0.00044561
-0.000455502
-0.000463303
-0.000470021
-0.000474533
-0.000478088
-0.000479173
-0.000478984
-0.000476327
-0.000472357
-0.000465719
-0.000457632
-0.000446898
-0.000434649
-0.000419647
-0.000403096
-0.000383853
-0.000363018
-0.000339459
-0.000314383
-0.000286705
-0.000257462
-0.000225675
-0.000192566
-0.000157026
-0.00012005
-8.09294e-05
-4.0796e-05
1.6262e-06
4.51636e-05
9.01767e-05
0.000135996
0.000184052
0.000232458
0.000281521
0.000331703
0.000383911
0.000434836
0.000486059
0.000539641
0.000593779
0.000643825
0.000695849
0.00075179
0.000819139
0.000874786
0.000925765
0.000971654
0.00102141
0.0010659
0.0010902
0.00110816
0.00113363
0.0011132
0.00103676
0.000990993
0.000909788
0.000731091
0.000730332
0.000338214
-0.000348855
7.94464e-05
5.62193e-05
-0.000440026
-2.86372e-05
-0.000375725
-0.000494523
-0.000260612
-0.000701915
-0.000799105
-0.000602903
-0.00055061
-0.000490458
-0.000425706
-0.000372846
-0.000333466
-0.000294942
-0.000259961
-0.000237117
-0.000221228
-0.000207521
-0.000200754
-0.000199495
-0.000201549
-0.000207366
-0.000217484
-0.000228619
-0.000241995
-0.000257492
-0.000274256
-0.000290446
-0.000307965
-0.000325535
-0.000342928
-0.000359215
-0.00037587
-0.000391265
-0.000405979
-0.000419183
-0.000431971
-0.000442826
-0.000452747
-0.000460736
-0.000467764
-0.000472501
-0.000476062
-0.000477323
-0.000477271
-0.000474705
-0.000470732
-0.000464203
-0.000456153
-0.00044545
-0.000433172
-0.000418225
-0.000401663
-0.000382399
-0.000361506
-0.000337985
-0.000312852
-0.000285078
-0.000255782
-0.000224032
-0.000190746
-0.000155031
-0.000118087
-7.8911e-05
-3.83359e-05
4.22133e-06
4.76066e-05
9.31046e-05
0.000139704
0.000187543
0.000235979
0.000286584
0.000337525
0.000388856
0.000441176
0.000495504
0.000548597
0.000601883
0.000657162
0.000712844
0.000765211
0.000838287
0.000899985
0.000952403
0.000999759
0.00106105
0.00111421
0.00113507
0.0011677
0.00121772
0.0011825
0.00110469
0.00111585
0.00105035
0.000817648
0.000606549
0.000236974
-0.000138474
-3.80344e-05
5.51266e-05
-8.77047e-05
-0.000117023
-0.000208848
-9.53527e-05
-9.80798e-05
-0.000440111
-0.000585849
-0.000573401
-0.000628611
-0.000519118
-0.000409379
-0.000390946
-0.000355811
-0.000293916
-0.00026099
-0.000247419
-0.000223774
-0.000201904
-0.000197762
-0.00019859
-0.000196249
-0.000199221
-0.000211027
-0.000223049
-0.000234536
-0.00024955
-0.000267722
-0.000284451
-0.000301357
-0.0003194
-0.000337788
-0.000354397
-0.000371022
-0.000387049
-0.000402318
-0.000415732
-0.000428678
-0.000440012
-0.000450182
-0.000458328
-0.000465514
-0.000470536
-0.000474185
-0.000475565
-0.000475608
-0.000473187
-0.000469227
-0.000462782
-0.000454759
-0.000444115
-0.000431818
-0.000416918
-0.000400325
-0.000381071
-0.000360145
-0.000336623
-0.000311408
-0.000283621
-0.000254274
-0.000222447
-0.000189034
-0.000153301
-0.000116238
-7.68598e-05
-3.61321e-05
6.4738e-06
5.01732e-05
9.60479e-05
0.0001428
0.00019086
0.000240023
0.000291201
0.000342346
0.000394402
0.000448167
0.000503352
0.000556894
0.000611937
0.000670055
0.000727169
0.00078028
0.000859485
0.000914742
0.000978298
0.00104214
0.00109273
0.00114446
0.00120802
0.0012439
0.00124316
0.00127765
0.00131538
0.00118265
0.00102635
0.00082562
0.000358104
9.06807e-05
-2.42402e-05
-0.000139759
-0.000171586
-1.75497e-05
-0.000111005
-4.99438e-05
-6.1803e-06
-5.22175e-05
-0.000166602
-0.00030622
-0.000502492
-0.000537818
-0.000489273
-0.00046943
-0.000405205
-0.000336035
-0.000303556
-0.000277768
-0.00024151
-0.000218287
-0.000208519
-0.000196945
-0.00018873
-0.000191948
-0.000197938
-0.000203531
-0.000214222
-0.000229762
-0.000244464
-0.000259947
-0.000277958
-0.000296762
-0.000314089
-0.000331991
-0.000349982
-0.000367231
-0.000382941
-0.000398503
-0.000412761
-0.000425833
-0.000437184
-0.000447711
-0.000456258
-0.000463445
-0.000468606
-0.000472471
-0.000474021
-0.000474049
-0.00047176
-0.000467887
-0.000461512
-0.000453464
-0.000442907
-0.000430624
-0.000415738
-0.0003991
-0.000379901
-0.000358941
-0.000335374
-0.000310106
-0.000282363
-0.000252903
-0.000220961
-0.00018754
-0.000151806
-0.000114447
-7.4945e-05
-3.43147e-05
8.54925e-06
5.28233e-05
9.8601e-05
0.000145284
0.000194343
0.000244178
0.000294691
0.00034658
0.000400956
0.000454564
0.000508667
0.000565787
0.000624213
0.000679512
0.000737559
0.000800219
0.000876109
0.000935777
0.00100224
0.00107213
0.00113029
0.00118395
0.00125701
0.00131573
0.00132824
0.00135945
0.00140875
0.00137447
0.00113596
0.000503982
6.31903e-06
-2.50831e-05
-9.57365e-05
-0.00012997
-8.56515e-05
-3.84632e-05
-9.65102e-05
-3.28407e-05
-1.04076e-05
-2.45858e-05
-3.30848e-05
-4.13821e-05
-0.000224726
-0.000469696
-0.000538814
-0.000472935
-0.000378228
-0.000340331
-0.000320733
-0.000277829
-0.000237081
-0.000219786
-0.000208858
-0.000194025
-0.000185235
-0.000187575
-0.000193089
-0.000198849
-0.000208764
-0.000223609
-0.000239066
-0.000254893
-0.000272465
-0.000291462
-0.000309634
-0.000327692
-0.000345701
-0.000363417
-0.000379675
-0.000395322
-0.000409808
-0.000423248
-0.000434893
-0.000445491
-0.000454276
-0.000461662
-0.000466978
-0.000470898
-0.000472618
-0.000472723
-0.000470524
-0.000466676
-0.000460398
-0.000452363
-0.000441858
-0.000429561
-0.000414721
-0.000398068
-0.000378881
-0.000357868
-0.000334325
-0.000309016
-0.000281224
-0.00025169
-0.00021977
-0.000186238
-0.000150371
-0.000112965
-7.34428e-05
-3.2523e-05
1.05196e-05
5.47752e-05
0.00010081
0.000148068
0.000197197
0.000247096
0.00029851
0.00035116
0.000405369
0.000459788
0.000515795
0.000573449
0.000632068
0.000690057
0.000750662
0.000814038
0.000888758
0.000961372
0.00102406
0.00108577
0.00116578
0.00124033
0.00129186
0.00135396
0.00143603
0.00146102
0.00144737
0.00156311
0.00121475
0.000273435
-0.000145752
-0.000110906
-6.28256e-05
-3.27806e-05
-6.4921e-05
-0.00011214
-2.47625e-05
-1.38063e-05
-6.04673e-05
-2.28035e-05
6.21429e-05
7.53721e-05
-7.43381e-05
-0.000396195
-0.000502976
-0.000423815
-0.000398698
-0.000366724
-0.000303514
-0.000264534
-0.000251642
-0.000225889
-0.000196728
-0.000189522
-0.000189867
-0.000183895
-0.000184137
-0.000195722
-0.000207229
-0.000217464
-0.000232845
-0.000251718
-0.000268817
-0.000286196
-0.000305504
-0.000324747
-0.000342239
-0.000359774
-0.000376961
-0.000392935
-0.000407239
-0.00042091
-0.000433064
-0.000443706
-0.000452524
-0.000460131
-0.000465677
-0.000469583
-0.000471399
-0.000471624
-0.000469519
-0.000465652
-0.000459458
-0.000451464
-0.000440994
-0.000428667
-0.000413885
-0.000397225
-0.000378029
-0.000356977
-0.000333477
-0.000308113
-0.000280263
-0.000250704
-0.000218809
-0.000185121
-0.000149164
-0.000111798
-7.21893e-05
-3.09316e-05
1.21146e-05
5.62832e-05
0.000102794
0.000150541
0.000199332
0.000249455
0.000302187
0.000354999
0.000408386
0.00046454
0.000522879
0.00057905
0.000637368
0.00070107
0.000763584
0.000821972
0.000901866
0.000970643
0.00104194
0.0011126
0.00118793
0.00126865
0.00133839
0.001402
0.00149315
0.00155675
0.00156616
0.00162734
0.000805256
-1.10409e-05
-3.59017e-05
-8.30569e-05
-7.47238e-05
-6.32445e-05
-6.46558e-05
-6.02437e-05
-2.2787e-05
-3.60187e-05
-8.16109e-06
1.97644e-05
3.92576e-05
4.39149e-05
4.85453e-05
-0.000195499
-0.000454903
-0.000429476
-0.000407102
-0.000350792
-0.000302978
-0.000275607
-0.000246991
-0.000219111
-0.000201008
-0.000189812
-0.000182786
-0.00018126
-0.000184355
-0.000191244
-0.000201812
-0.000215254
-0.00023023
-0.00024704
-0.000265159
-0.000283834
-0.000302423
-0.000321317
-0.000339785
-0.000357642
-0.000374514
-0.000390713
-0.000405559
-0.000419247
-0.000431388
-0.000442282
-0.000451336
-0.000458917
-0.000464555
-0.000468605
-0.000470515
-0.000470726
-0.000468711
-0.000464899
-0.000458746
-0.000450737
-0.000440324
-0.000428009
-0.000413239
-0.000396546
-0.000377391
-0.000356327
-0.000332795
-0.00030739
-0.000279587
-0.000249963
-0.000217974
-0.000184288
-0.000148371
-0.000110792
-7.10734e-05
-2.99404e-05
1.324e-05
5.78679e-05
0.000104285
0.00015185
0.000201371
0.000252037
0.000304105
0.00035733
0.000412524
0.000468413
0.000525658
0.000584553
0.000645245
0.000706396
0.000769786
0.00083511
0.000911149
0.000975081
0.00105411
0.00113688
0.00120359
0.00127615
0.00137525
0.00146611
0.00152452
0.00159002
0.00171004
0.00147973
0.000463589
-0.000101665
-1.10927e-05
-5.24515e-05
-8.75529e-05
-7.93769e-05
-3.68957e-05
-1.71386e-05
-5.38686e-05
-4.34802e-05
2.60441e-05
3.47276e-05
2.01525e-05
5.93467e-05
0.000109902
-5.98419e-05
-0.00038114
-0.000453857
-0.000379064
-0.000332751
-0.000320117
-0.000284172
-0.000234412
-0.000213999
-0.000208235
-0.00018998
-0.000175593
-0.000179281
-0.000185723
-0.000188286
-0.00019735
-0.000213696
-0.00022895
-0.000243849
-0.000262338
-0.000282281
-0.000300538
-0.000318907
-0.000337983
-0.000356264
-0.000372914
-0.00038913
-0.000404378
-0.000418161
-0.00043025
-0.000441272
-0.000450526
-0.00045811
-0.00046378
-0.000467925
-0.00046992
-0.00047012
-0.000468153
-0.000464384
-0.000458265
-0.000450242
-0.000439868
-0.000427562
-0.0004128
-0.000396087
-0.000376961
-0.000355881
-0.000332331
-0.000306907
-0.000279126
-0.000249448
-0.000217417
-0.000183735
-0.000147809
-0.000110099
-7.03494e-05
-2.92589e-05
1.40581e-05
5.89185e-05
0.000105246
0.000152817
0.000202816
0.000253683
0.000305402
0.000359104
0.000415325
0.000470857
0.000527671
0.000588598
0.000650547
0.000709709
0.000774124
0.000844988
0.000913784
0.000988945
0.00105916
0.00113218
0.00121876
0.00130405
0.00138049
0.00146563
0.0015564
0.00167
0.00179393
0.00134581
0.000474396
-9.00664e-05
-0.000107553
-6.23743e-05
-4.16762e-05
-4.96911e-05
-6.04207e-05
-5.16277e-05
-2.21566e-05
4.62457e-06
-9.23019e-06
1.41284e-05
5.51433e-05
8.3691e-05
0.000110256
-4.95026e-05
-0.000296798
-0.00042251
-0.000392395
-0.000356814
-0.000304585
-0.000266953
-0.000248621
-0.000222497
-0.000195596
-0.000185965
-0.000183596
-0.000178324
-0.000178811
-0.000188567
-0.000199579
-0.00021066
-0.000225979
-0.000244278
-0.000261891
-0.000279929
-0.00029936
-0.000318759
-0.000336934
-0.000354907
-0.000372365
-0.000388684
-0.000403514
-0.000417448
-0.000429889
-0.000440808
-0.000449961
-0.000457711
-0.000463487
-0.000467547
-0.000469561
-0.000469849
-0.0004679
-0.000464091
-0.000458008
-0.000450021
-0.000439642
-0.00042731
-0.000412581
-0.000395883
-0.00037673
-0.000355627
-0.000332127
-0.000306689
-0.00027884
-0.000249177
-0.00021722
-0.00018343
-0.000147413
-0.000109845
-7.01063e-05
-2.8704e-05
1.45517e-05
5.90882e-05
0.000105797
0.000153831
0.000203184
0.000253902
0.000306936
0.000360514
0.000415146
0.000472124
0.000531164
0.000589411
0.000650047
0.000714882
0.000779685
0.000843137
0.000913784
0.000988945
0.00105916
0.00113218
0.00121876
0.00130405
0.00138049
0.00146563
0.0015564
0.00167
0.00179393
0.00134581
0.000474396
-9.00664e-05
-0.000107553
-6.23743e-05
-4.16762e-05
-4.96911e-05
-6.04207e-05
-5.16277e-05
-2.21566e-05
4.62457e-06
-9.23019e-06
1.41284e-05
5.51433e-05
8.3691e-05
0.000110256
-4.95026e-05
-0.000296798
-0.00042251
-0.000392395
-0.000356814
-0.000304585
-0.000266953
-0.000248621
-0.000222497
-0.000195596
-0.000185965
-0.000183596
-0.000178324
-0.000178811
-0.000188567
-0.000199579
-0.00021066
-0.000225979
-0.000244278
-0.000261891
-0.000279929
-0.00029936
-0.000318759
-0.000336934
-0.000354907
-0.000372365
-0.000388684
-0.000403514
-0.000417448
-0.000429889
-0.000440808
-0.000449961
-0.000457711
-0.000463487
-0.000467547
-0.000469561
-0.000469849
-0.0004679
-0.000464091
-0.000458008
-0.000450021
-0.000439642
-0.00042731
-0.000412581
-0.000395883
-0.00037673
-0.000355627
-0.000332127
-0.000306689
-0.00027884
-0.000249177
-0.00021722
-0.00018343
-0.000147413
-0.000109845
-7.01063e-05
-2.8704e-05
1.45517e-05
5.90882e-05
0.000105797
0.000153831
0.000203184
0.000253902
0.000306936
0.000360514
0.000415146
0.000472124
0.000531164
0.000589411
0.000650047
0.000714882
0.000779685
0.000843137
0.000911149
0.000975081
0.00105411
0.00113688
0.00120359
0.00127615
0.00137525
0.00146611
0.00152452
0.00159002
0.00171004
0.00147973
0.000463589
-0.000101665
-1.10927e-05
-5.24515e-05
-8.75529e-05
-7.93769e-05
-3.68957e-05
-1.71386e-05
-5.38686e-05
-4.34802e-05
2.60441e-05
3.47276e-05
2.01525e-05
5.93467e-05
0.000109902
-5.98419e-05
-0.00038114
-0.000453857
-0.000379064
-0.000332751
-0.000320117
-0.000284172
-0.000234412
-0.000213999
-0.000208235
-0.00018998
-0.000175593
-0.000179281
-0.000185723
-0.000188286
-0.00019735
-0.000213696
-0.00022895
-0.000243849
-0.000262338
-0.000282281
-0.000300538
-0.000318907
-0.000337983
-0.000356264
-0.000372914
-0.00038913