# vtk DataFile Version 3.0
fluid_state
ASCII
DATASET RECTILINEAR_GRID
DIMENSIONS 100 40 1
X_COORDINATES 100 float
0.5 1.5 2.5 3.5 4.5 5.5 6.5 7.5 8.5 9.5 10.5 11.5 12.5 13.5 14.5 15.5 16.5 17.5 18.5 19.5 20.5 21.5 22.5 23.5 24.5 25.5 26.5 27.5 28.5 29.5 30.5 31.5 32.5 33.5 34.5 35.5 36.5 37.5 38.5 39.5 40.5 41.5 42.5 43.5 44.5 45.5 46.5 47.5 48.5 49.5 50.5 51.5 52.5 53.5 54.5 55.5 56.5 57.5 58.5 59.5 60.5 61.5 62.5 63.5 64.5 65.5 66.5 67.5 68.5 69.5 70.5 71.5 72.5 73.5 74.5 75.5 76.5 77.5 78.5 79.5 80.5 81.5 82.5 83.5 84.5 85.5 86.5 87.5 88.5 89.5 90.5 91.5 92.5 93.5 94.5 95.5 96.5 97.5 98.5 99.5 
Y_COORDINATES 40 float
0.5 1.5 2.5 3.5 4.5 5.5 6.5 7.5 8.5 9.5 10.5 11.5 12.5 13.5 14.5 15.5 16.5 17.5 18.5 19.5 20.5 21.5 22.5 23.5 24.5 25.5 26.5 27.5 28.5 29.5 30.5 31.5 32.5 33.5 34.5 35.5 36.5 37.5 38.5 39.5 
Z_COORDINATES 1 float
0
POINT_DATA 4000
SCALARS density_difference float 1
LOOKUP_TABLE default
0.000761205
0.000769725
0.000776714
0.000781508
0.000781038
0.000772843
0.000756785
0.000738769
0.000711239
0.000662626
0.000611416
0.000555883
0.000470765
0.00037755
0.00028497
0.00016856
4.66028e-05
-7.17664e-05
-0.000202234
-0.000323434
-0.000431336
-0.000546313
-0.00063895
-0.00070846
-0.000781359
-0.000833304
-0.000860963
-0.0008903
-0.000905752
-0.000902699
-0.00089969
-0.000892368
-0.000873953
-0.000851036
-0.000829399
-0.000806119
-0.000776765
-0.000746405
-0.000719504
-0.000691159
-0.000659346
-0.000629294
-0.00060165
-0.000572474
-0.00054235
-0.000514345
-0.000487328
-0.000459387
-0.000431769
-0.000405661
-0.000379773
-0.000353577
-0.00032804
-0.000303328
-0.000278564
-0.000253859
-0.000229695
-0.000205874
-0.000181967
-0.000158238
-0.000134802
-0.000111455
-8.80479e-05
-6.47842e-05
-4.16038e-05
-1.84164e-05
4.82332e-06
2.80106e-05
5.12253e-05
7.44664e-05
9.77924e-05
0.000121135
0.00014452
0.000167943
0.000191507
0.000215078
0.000238648
0.000262316
0.000286152
0.00030986
0.000333548
0.00035747
0.00038143
0.000405011
0.000428728
0.000452787
0.000476411
0.00049947
0.000523121
0.000546817
0.000569179
0.000591307
0.000614518
0.0006364
0.00065614
0.000676824
0.000697823
0.00071498
0.000730489
0.00074737
0.000752028
0.000760487
0.000766846
0.000769656
0.000766863
0.000754168
0.000739238
0.000723071
0.000684277
0.000633038
0.000593458
0.000529035
0.000433366
0.000351374
0.000263946
0.000141102
1.77258e-05
-8.86604e-05
-0.00020897
-0.000337197
-0.000439043
-0.000537561
-0.000633944
-0.000698571
-0.000759898
-0.000820229
-0.000842702
-0.000858769
-0.000885551
-0.000887518
-0.000872705
-0.00086612
-0.000857838
-0.000835719
-0.000808185
-0.000787336
-0.000765452
-0.000734949
-0.00070448
-0.000679527
-0.000652212
-0.000621015
-0.000592091
-0.000565944
-0.000537745
-0.000508703
-0.000481732
-0.000455814
-0.000428707
-0.000402034
-0.000376643
-0.000351552
-0.000325952
-0.000301085
-0.000276807
-0.000252593
-0.000228238
-0.000204498
-0.000180899
-0.00015734
-0.000133761
-0.000110576
-8.72973e-05
-6.40875e-05
-4.0843e-05
-1.78058e-05
5.42313e-06
2.85592e-05
5.17889e-05
7.4933e-05
9.82907e-05
0.000121534
0.000144936
0.000168318
0.000191877
0.000215298
0.00023895
0.000262588
0.000286294
0.000309867
0.000333757
0.000357514
0.000381173
0.000404803
0.000428781
0.000452283
0.000475566
0.000499069
0.000522672
0.000545187
0.000567633
0.000590533
0.00061262
0.000632951
0.000653804
0.000674625
0.000692875
0.00070924
0.000726317
0.000741191
0.000746064
0.000757208
0.000761718
0.00075946
0.000755891
0.000748647
0.00073195
0.000701344
0.000667222
0.000632192
0.000570595
0.000491653
0.000427107
0.000337025
0.000217516
0.000116666
6.00144e-06
-0.000126558
-0.000239125
-0.000351461
-0.000468126
-0.000552644
-0.000636635
-0.000719911
-0.000763755
-0.000802307
-0.000845931
-0.000860292
-0.000862647
-0.000870383
-0.000867681
-0.000852616
-0.000834849
-0.000820397
-0.000800284
-0.00077248
-0.000746949
-0.000724706
-0.000696933
-0.000666873
-0.00064036
-0.000614622
-0.000585502
-0.000557101
-0.000530926
-0.000504486
-0.000476664
-0.00045031
-0.000424872
-0.000399124
-0.000373101
-0.000348332
-0.000323709
-0.000299035
-0.000274476
-0.00025073
-0.000226804
-0.000203047
-0.0001794
-0.000156208
-0.00013275
-0.000109547
-8.63122e-05
-6.33325e-05
-4.00806e-05
-1.70668e-05
6.10633e-06
2.91063e-05
5.23854e-05
7.54739e-05
9.87796e-05
0.000121943
0.000145411
0.000168701
0.000192204
0.000215603
0.000239319
0.000262787
0.000286455
0.000310096
0.00033397
0.000357434
0.000381178
0.000404956
0.000428653
0.000451787
0.000475473
0.000499001
0.000521804
0.000544197
0.000567503
0.000589699
0.000610424
0.00063159
0.000653346
0.000671832
0.000688924
0.000707579
0.00072422
0.000735114
0.000746887
0.00075366
0.000757679
0.000758972
0.000753735
0.000743986
0.000726895
0.000695223
0.000664007
0.000624258
0.000552592
0.000481368
0.000415213
0.000307405
0.000188778
8.66683e-05
-3.03958e-05
-0.000169825
-0.000292735
-0.000394889
-0.000509991
-0.000607505
-0.000675859
-0.000750315
-0.000800161
-0.000820575
-0.000855989
-0.000877415
-0.000866073
-0.000863001
-0.000863764
-0.000849606
-0.000825393
-0.000805598
-0.000788929
-0.000764528
-0.000734668
-0.000710408
-0.000686976
-0.000658645
-0.000629518
-0.000604299
-0.000578259
-0.000550232
-0.000522971
-0.00049784
-0.000471681
-0.000445194
-0.000419592
-0.000395047
-0.000369713
-0.000344783
-0.000320407
-0.000296537
-0.000272159
-0.000248387
-0.000224783
-0.000201456
-0.000177806
-0.000154703
-0.000131481
-0.000108472
-8.52115e-05
-6.23581e-05
-3.92253e-05
-1.63055e-05
6.87176e-06
2.97691e-05
5.30081e-05
7.60171e-05
9.9324e-05
0.000122434
0.000145875
0.000169069
0.000192618
0.000215992
0.000239622
0.000263014
0.000286821
0.000310369
0.00033406
0.000357592
0.000381539
0.000404978
0.000428497
0.000452022
0.000475726
0.000498511
0.000521531
0.000544646
0.000567209
0.000588483
0.000610469
0.000632028
0.000651673
0.000670204
0.000689772
0.000706832
0.000720657
0.000734244
0.000749034
0.000753661
0.000760486
0.000764467
0.000757386
0.000742841
0.000727192
0.000705497
0.000665388
0.000604811
0.000553052
0.000491027
0.000375026
0.000268702
0.000184296
3.62079e-05
-0.000110875
-0.000219241
-0.000356888
-0.00048816
-0.000580869
-0.000689113
-0.000761624
-0.0007978
-0.000857925
-0.000892732
-0.000882209
-0.000890046
-0.000899175
-0.000884168
-0.000859414
-0.000843983
-0.000831149
-0.000804028
-0.00077315
-0.000753389
-0.000730916
-0.000700051
-0.000671817
-0.000649245
-0.000622598
-0.000593499
-0.00056741
-0.000543217
-0.000516209
-0.000489545
-0.000464679
-0.000440176
-0.000414245
-0.000389472
-0.000365366
-0.000341273
-0.000316617
-0.000293047
-0.000269458
-0.00024597
-0.000222265
-0.000199331
-0.000176074
-0.000153056
-0.000129859
-0.00010716
-8.40488e-05
-6.12391e-05
-3.81753e-05
-1.54539e-05
7.69486e-06
3.05419e-05
5.37124e-05
7.66126e-05
9.99443e-05
0.000122983
0.000146372
0.000169532
0.00019312
0.000216383
0.000240002
0.000263436
0.000287241
0.000310631
0.000334418
0.000358051
0.000381858
0.00040515
0.000428987
0.00045255
0.000475872
0.000498743
0.000522382
0.000545157
0.000567144
0.000589193
0.000611901
0.000632258
0.00065168
0.000672182
0.000691728
0.000706584
0.000721766
0.000738158
0.000751891
0.000764459
0.000770533
0.00076737
0.000766152
0.000758306
0.000735767
0.000710026
0.000672085
0.00061301
0.000555726
0.000472219
0.000355833
0.000254259
0.000130392
-2.89219e-05
-0.000176167
-0.000313008
-0.000454851
-0.000604658
-0.000704242
-0.000790419
-0.000875382
-0.000912003
-0.000933389
-0.000966532
-0.000954746
-0.000934785
-0.000931053
-0.000911168
-0.000881492
-0.000852996
-0.000828566
-0.000805192
-0.000773914
-0.00074372
-0.000718978
-0.00069322
-0.000663389
-0.000636254
-0.000611216
-0.000585141
-0.000557647
-0.00053243
-0.000507608
-0.000482268
-0.000456626
-0.000432631
-0.000408298
-0.000383942
-0.000359659
-0.000336431
-0.000312635
-0.000289174
-0.000265753
-0.000242964
-0.000219623
-0.000196768
-0.00017377
-0.000151178
-0.000128108
-0.000105519
-8.26115e-05
-6.00269e-05
-3.70092e-05
-1.43958e-05
8.63647e-06
3.13591e-05
5.45131e-05
7.73404e-05
0.000100611
0.000123563
0.000146976
0.0001701
0.000193627
0.00021684
0.000240559
0.000263942
0.000287649
0.000311107
0.00033507
0.00035852
0.000382262
0.000405888
0.00042983
0.000452968
0.000476561
0.000500103
0.000523378
0.000545651
0.000568838
0.000591517
0.000612862
0.000633592
0.00065566
0.00067539
0.000692736
0.00071096
0.000729294
0.000741366
0.000763816
0.000777258
0.000781402
0.000781321
0.000783614
0.000775937
0.000753242
0.000721322
0.000685191
0.000639184
0.000552731
0.000440715
0.000366658
0.000237807
2.99254e-05
-9.41737e-05
-0.000232425
-0.000452728
-0.000603385
-0.00072576
-0.00086806
-0.000936031
-0.00100093
-0.00107368
-0.00105064
-0.00102655
-0.00105005
-0.00102411
-0.000969306
-0.000932889
-0.000914134
-0.000882262
-0.000832287
-0.000800265
-0.000778639
-0.000744155
-0.000707053
-0.000682039
-0.000657014
-0.000626212
-0.000597478
-0.000574157
-0.00054853
-0.000521445
-0.000496497
-0.000473508
-0.000448505
-0.000423917
-0.000400509
-0.000377657
-0.000353561
-0.000330416
-0.000307575
-0.000284913
-0.000261573
-0.000239121
-0.000216445
-0.000193965
-0.000171056
-0.000148812
-0.000126113
-0.000103693
-8.08901e-05
-5.8565e-05
-3.57151e-05
-1.3193e-05
9.74278e-06
3.23107e-05
5.5412e-05
7.81688e-05
0.000101371
0.000124263
0.000147676
0.000170725
0.000194238
0.000217476
0.000241191
0.000264497
0.0002883
0.000311839
0.000335736
0.00035918
0.000383198
0.000406871
0.000430672
0.000454062
0.000478132
0.000501524
0.00052474
0.000547823
0.000571518
0.000593709
0.000615602
0.000637951
0.000660051
0.000679181
0.000698691
0.000719026
0.000736147
0.000748783
0.000781162
0.000787623
0.000798615
0.000811169
0.000804554
0.000789747
0.000784631
0.00075655
0.000701504
0.000649103
0.000569401
0.000458699
0.000341345
0.00017256
4.77881e-06
-0.000165506
-0.000381473
-0.000571831
-0.000754474
-0.000895203
-0.00104846
-0.00114361
-0.00116037
-0.00118639
-0.00120815
-0.00116024
-0.00112489
-0.00108484
-0.00103528
-0.00099242
-0.000936387
-0.000893648
-0.000857558
-0.000812374
-0.00077109
-0.000740455
-0.000707967
-0.000673262
-0.000642859
-0.000616716
-0.000588416
-0.000560578
-0.000535336
-0.000511391
-0.000485831
-0.000461648
-0.000438516
-0.000415533
-0.000391675
-0.000369189
-0.000346696
-0.000324217
-0.000301336
-0.000279444
-0.000257062
-0.000234881
-0.000212418
-0.000190585
-0.000168147
-0.000146059
-0.000123623
-0.000101612
-7.90185e-05
-5.68156e-05
-3.41695e-05
-1.18701e-05
1.09753e-05
3.34557e-05
5.64309e-05
7.90714e-05
0.000102253
0.000125099
0.000148433
0.000171436
0.000195002
0.000218215
0.000241866
0.000265232
0.000289168
0.000312637
0.000336525
0.000360239
0.000384402
0.000407893
0.000431946
0.000455918
0.000479915
0.000503114
0.000527309
0.00055114
0.00057418
0.000596828
0.000621006
0.000643447
0.00066427
0.000686253
0.000709223
0.000727087
0.000744038
0.000764679
0.00079661
0.000810527
0.000826401
0.000834229
0.000831883
0.000828417
0.000818205
0.000787947
0.000740759
0.000670623
0.000591921
0.000496754
0.000300892
0.000109723
1.41347e-05
-0.000264692
-0.00055005
-0.000672626
-0.000911192
-0.00112138
-0.00121196
-0.00133979
-0.00138059
-0.0012995
-0.00132783
-0.00132129
-0.00120581
-0.0011373
-0.00109784
-0.00105046
-0.000972919
-0.000906937
-0.00087231
-0.000828932
-0.000774033
-0.000734956
-0.000704527
-0.000668362
-0.000632139
-0.000604383
-0.000577615
-0.000548789
-0.000521746
-0.000498624
-0.000474479
-0.000450001
-0.000426863
-0.000405319
-0.000382507
-0.000360119
-0.000338297
-0.00031704
-0.000294792
-0.000273195
-0.000251558
-0.000230164
-0.000208067
-0.000186579
-0.000164706
-0.000143049
-0.000120844
-9.91284e-05
-7.68798e-05
-5.48953e-05
-3.24095e-05
-1.03117e-05
1.23598e-05
3.47248e-05
5.75927e-05
8.01354e-05
0.000103246
0.00012602
0.000149312
0.000172314
0.000195848
0.000219019
0.00024274
0.000266173
0.000290065
0.000313588
0.000337711
0.000361483
0.000385604
0.00040942
0.000433871
0.000457776
0.000481943
0.000505984
0.000530554
0.000554203
0.000578187
0.000602289
0.000626426
0.000649104
0.000672521
0.000696072
0.000718277
0.000738454
0.000760239
0.000780776
0.000817292
0.00084305
0.000855374
0.000857468
0.000874942
0.000882308
0.000849518
0.000822607
0.000807321
0.000724695
0.000606649
0.000502991
0.000337789
0.000128544
-0.000121614
-0.000370723
-0.000520041
-0.000810513
-0.00110292
-0.00132548
-0.00139461
-0.00146748
-0.00155727
-0.00153919
-0.00141511
-0.00135556
-0.00129384
-0.00125077
-0.00115567
-0.00105343
-0.00101046
-0.000954029
-0.000877119
-0.000825628
-0.0007879
-0.000740482
-0.000693542
-0.000659907
-0.000628237
-0.000593365
-0.000562331
-0.000537245
-0.000510742
-0.000484148
-0.000460577
-0.000438861
-0.000415439
-0.000393086
-0.000372031
-0.000351178
-0.000329232
-0.000308404
-0.000287634
-0.000266771
-0.000245292
-0.000224601
-0.000203415
-0.000182281
-0.000160697
-0.000139606
-0.000117882
-9.63653e-05
-7.43938e-05
-5.27617e-05
-3.05106e-05
-8.53693e-06
1.39332e-05
3.61116e-05
5.88777e-05
8.13524e-05
0.000104337
0.000127037
0.000150319
0.000173295
0.000196761
0.000219965
0.000243758
0.000267179
0.000291076
0.000314795
0.000339046
0.00036279
0.000387116
0.000411372
0.000435904
0.000459838
0.000484714
0.000509427
0.000533858
0.000557998
0.000583656
0.000608323
0.000632069
0.000656812
0.000683154
0.00070616
0.000728608
0.000754628
0.000779366
0.000796503
0.000846731
0.000867844
0.000886631
0.000906246
0.000919223
0.000917117
0.000912262
0.000898225
0.000848462
0.000779285
0.000684682
0.000522511
0.000379307
0.000186858
-0.000241345
-0.00043002
-0.000492187
-0.000895851
-0.0011234
-0.00139349
-0.00168413
-0.00171403
-0.00159684
-0.00164605
-0.00151474
-0.00141643
-0.00139434
-0.00129703
-0.00119455
-0.00109401
-0.00102795
-0.00096952
-0.000895887
-0.000835346
-0.000788519
-0.000740213
-0.000692584
-0.000653462
-0.000618468
-0.000583923
-0.000551419
-0.000523722
-0.000497578
-0.000471843
-0.000447301
-0.000425378
-0.000403533
-0.000381854
-0.000360681
-0.000340736
-0.000320175
-0.000299806
-0.000279466
-0.000259616
-0.000239015
-0.000218688
-0.00019807
-0.000177661
-0.000156577
-0.000135791
-0.000114535
-9.34411e-05
-7.17573e-05
-5.03556e-05
-2.84092e-05
-6.65517e-06
1.56412e-05
3.76827e-05
6.02828e-05
8.26464e-05
0.000105543
0.000128204
0.000151402
0.000174332
0.000197815
0.000221064
0.000244799
0.000268272
0.000292342
0.000316123
0.000340344
0.000364386
0.000389042
0.000413275
0.000437992
0.000462701
0.000487894
0.000512507
0.000537882
0.000563366
0.000588937
0.000613982
0.000640313
0.00066645
0.00069208
0.000717704
0.000744926
0.000770742
0.000795419
0.000820829
0.000876028
0.000895901
0.000926473
0.000958192
0.000963175
0.000966141
0.00099432
0.000976295
0.000896606
0.00085896
0.000800263
0.000593666
0.000387124
0.000230182
-4.66219e-05
-0.000427016
-0.000833874
-0.000794234
-0.000931543
-0.00127816
-0.00131113
-0.00161794
-0.00171497
-0.00149641
-0.0015787
-0.00158646
-0.00148849
-0.00126948
-0.00119818
-0.0011657
-0.00104592
-0.000954963
-0.0009133
-0.0008554
-0.000784132
-0.000734586
-0.000696151
-0.000649864
-0.000605985
-0.00057436
-0.00054393
-0.000510996
-0.000482782
-0.000460016
-0.000435794
-0.000411646
-0.000390554
-0.000370996
-0.000349902
-0.000329649
-0.000310494
-0.000291378
-0.000271246
-0.000251866
-0.000232422
-0.000212768
-0.000192469
-0.000172643
-0.000152295
-0.000131871
-0.000110943
-9.02896e-05
-6.90193e-05
-4.78207e-05
-2.61374e-05
-4.64892e-06
1.74344e-05
3.93645e-05
6.17854e-05
8.40243e-05
0.000106831
0.000129444
0.000152542
0.000175463
0.000198947
0.00022219
0.000245914
0.000269507
0.000293645
0.000317464
0.000341833
0.000366161
0.000390921
0.000415307
0.000440494
0.000465672
0.000490985
0.000516115
0.000542538
0.000568604
0.000594412
0.000620929
0.000649169
0.000675769
0.000702237
0.000731482
0.000761512
0.000787117
0.00081498
0.000848243
0.000902717
0.000938639
0.000969052
0.00099354
0.0010244
0.0010501
0.00104784
0.00103711
0.00103811
0.000972253
0.000827626
0.000725239
0.000555107
0.000264347
0.000203569
-0.000299547
-0.00109407
-0.000483575
-0.000430723
-0.00100775
-0.000519322
-0.000955317
-0.00117794
-0.000988638
-0.00155171
-0.00166652
-0.00142094
-0.00133803
-0.00123114
-0.00113831
-0.00105647
-0.000985236
-0.000916531
-0.000848037
-0.000790728
-0.000739663
-0.000688851
-0.000643295
-0.00060291
-0.000565241
-0.000531227
-0.000501304
-0.000472667
-0.000446347
-0.000422871
-0.000400859
-0.000378888
-0.00035861
-0.00033929
-0.000320111
-0.000300699
-0.000282184
-0.00026347
-0.000244612
-0.000225425
-0.000206584
-0.000187144
-0.000167636
-0.000147711
-0.000127891
-0.000107436
-8.70155e-05
-6.61153e-05
-4.52711e-05
-2.38516e-05
-2.52298e-06
1.93116e-05
4.10584e-05
6.33347e-05
8.54985e-05
0.000108161
0.000130692
0.000153749
0.000176678
0.000200073
0.00022333
0.000247149
0.000270793
0.000294878
0.000318905
0.00034352
0.000367855
0.000392714
0.0004177
0.00044317
0.000468269
0.000494265
0.000520529
0.000546922
0.000573197
0.0006011
0.000628928
0.000656464
0.000685049
0.000715794
0.000745114
0.000774591
0.00080716
0.000840518
0.000870316
0.000933219
0.000977266
0.00101155
0.00104018
0.00108616
0.00112377
0.00112121
0.00113248
0.00116262
0.00108048
0.000941219
0.000893841
0.000745815
0.000415576
0.000147392
-0.000220737
-0.000571718
-0.000381537
-0.000264842
-0.000426588
-0.000460073
-0.000582166
-0.000464893
-0.000539326
-0.0010454
-0.00132682
-0.00134162
-0.00140749
-0.00126153
-0.0011043
-0.00106464
-0.00100334
-0.000908987
-0.000844994
-0.000800144
-0.000740585
-0.000680281
-0.000638272
-0.000600676
-0.000557611
-0.000519727
-0.000491599
-0.000463836
-0.00043499
-0.000410563
-0.000390082
-0.000368656
-0.000347589
-0.000328747
-0.00031084
-0.000291902
-0.000273491
-0.000255644
-0.000237674
-0.000218919
-0.000200491
-0.000181807
-0.000162846
-0.000143296
-0.000123887
-0.000103948
-8.38451e-05
-6.32415e-05
-4.26933e-05
-2.15828e-05
-4.30386e-07
2.11915e-05
4.27703e-05
6.48821e-05
8.69568e-05
0.000109488
0.000131965
0.000154954
0.000177854
0.000201209
0.000224519
0.000248333
0.000272014
0.000296191
0.000320375
0.000345037
0.000369547
0.000394706
0.000419939
0.000445562
0.000471159
0.000497734
0.000524335
0.000551219
0.0005786
0.000607408
0.000635827
0.000664679
0.000695334
0.000727517
0.000758141
0.000790426
0.000826848
0.000862896
0.000895047
0.000966636
0.00100415
0.00105288
0.00110417
0.00113971
0.00117671
0.00123067
0.00125084
0.00121697
0.00122574
0.00123932
0.00101017
0.000750177
0.000505749
1.3109e-05
-0.000226709
-0.000335627
-0.000497774
-0.000539105
-0.000344095
-0.000458507
-0.000399421
-0.000349207
-0.000387433
-0.000559105
-0.000825878
-0.00118445
-0.00127728
-0.00120344
-0.00115636
-0.00107153
-0.000974624
-0.000912782
-0.000859389
-0.000790842
-0.000732177
-0.000686328
-0.000636341
-0.000588003
-0.000551168
-0.000516953
-0.000481411
-0.000451471
-0.000427147
-0.000402336
-0.00037846
-0.000358196
-0.000339377
-0.000319723
-0.000301192
-0.000283856
-0.00026637
-0.000248264
-0.000230757
-0.000213137
-0.0001951
-0.000176585
-0.000158232
-0.000139333
-0.000120145
-0.000100512
-8.08481e-05
-6.05962e-05
-4.02035e-05
-1.93613e-05
1.53762e-06
2.29681e-05
4.44511e-05
6.63806e-05
8.8329e-05
0.000110772
0.000133222
0.000156096
0.000178963
0.000202337
0.000225674
0.000249414
0.000273195
0.000297522
0.000321726
0.000346399
0.000371283
0.000396672
0.000421853
0.000447835
0.00047424
0.000500883
0.000527516
0.000555734
0.000584228
0.000612542
0.000642028
0.000674022
0.000705096
0.000736389
0.000771653
0.000808865
0.000842888
0.000880561
0.000925142
0.000993856
0.00103851
0.00109204
0.00115216
0.00120003
0.00124306
0.00131036
0.00136025
0.00135174
0.0013663
0.00138592
0.00128922
0.000977852
0.000246681
-0.000314852
-0.000342315
-0.000430893
-0.000474747
-0.000425309
-0.000379329
-0.000453217
-0.000370964
-0.00033966
-0.000360104
-0.000383195
-0.000411934
-0.000725471
-0.00112509
-0.00123817
-0.00115022
-0.00102356
-0.000968423
-0.000928901
-0.000856097
-0.000781556
-0.000731355
-0.000685652
-0.000631942
-0.000582772
-0.000545086
-0.000510244
-0.000474686
-0.000443636
-0.000418301
-0.000394102
-0.00037049
-0.000349567
-0.00033086
-0.000312099
-0.000293781
-0.000276462
-0.00025958
-0.000242182
-0.000224918
-0.000207664
-0.000190214
-0.000172179
-0.00015409
-0.0001356
-0.00011682
-9.75047e-05
-7.80727e-05
-5.81371e-05
-3.79871e-05
-1.73583e-05
3.37846e-06
2.4607e-05
4.59588e-05
6.77508e-05
8.96203e-05
0.000111951
0.000134339
0.000157152
0.000180024
0.00020334
0.000226677
0.000250463
0.000274315
0.000298615
0.000322945
0.000347809
0.00037278
0.000398228
0.000423814
0.000450112
0.000476575
0.000503632
0.000531129
0.000559611
0.000588344
0.000618007
0.000648734
0.000680797
0.000713228
0.000747365
0.00078374
0.000821703
0.000859873
0.000901518
0.000947667
0.00101527
0.00107682
0.00112844
0.0011802
0.00125559
0.00132777
0.00137323
0.00143085
0.00151336
0.00152081
0.00146736
0.00159324
0.00118939
4.50757e-05
-0.000472557
-0.00043096
-0.000388797
-0.000359933
-0.000403409
-0.000463209
-0.000360001
-0.000349007
-0.00040753
-0.000360753
-0.000252433
-0.000249413
-0.00045975
-0.000934909
-0.00116068
-0.00108393
-0.00103989
-0.000989188
-0.00090192
-0.000835892
-0.000795789
-0.000737078
-0.000669932
-0.000625087
-0.000587432
-0.000540377
-0.000498813
-0.000469865
-0.000440887
-0.000410006
-0.000385275
-0.000365147
-0.000343685
-0.000322918
-0.000305307
-0.000288437
-0.000270534
-0.00025342
-0.000237128
-0.000220391
-0.000202992
-0.000185905
-0.000168571
-0.000150696
-0.000132336
-0.000113948
-9.50172e-05
-7.5712e-05
-5.59769e-05
-3.60925e-05
-1.56692e-05
4.97946e-06
2.60404e-05
4.72443e-05
6.89295e-05
9.07539e-05
0.000112971
0.000135294
0.000158078
0.000180949
0.00020419
0.000227546
0.000251393
0.000275263
0.000299528
0.000324032
0.000349041
0.000373992
0.000399562
0.000425599
0.000452009
0.000478434
0.000506121
0.00053437
0.000562649
0.000591746
0.000623164
0.000654471
0.000685843
0.0007205
0.000757919
0.000793249
0.000831184
0.000876589
0.000921746
0.000963049
0.00103663
0.0010945
0.00115756
0.00122195
0.00129418
0.0013762
0.00144605
0.0015099
0.00160935
0.00166828
0.00165725
0.00172098
0.000713632
-0.000296536
-0.000324263
-0.00039182
-0.000400647
-0.000393258
-0.000403146
-0.000398943
-0.000356002
-0.000375607
-0.000343832
-0.000312023
-0.000277306
-0.000280019
-0.000290592
-0.000672246
-0.0010855
-0.00106401
-0.00104097
-0.0009659
-0.00089532
-0.000844392
-0.000787935
-0.000727099
-0.00067343
-0.00062474
-0.000578375
-0.00053636
-0.000498494
-0.000464116
-0.000433649
-0.000406432
-0.000381301
-0.000358591
-0.000338081
-0.000318838
-0.000300374
-0.000283
-0.000266185
-0.000249526
-0.000232882
-0.000216429
-0.000199719
-0.000182765
-0.00016547
-0.000147979
-0.000129983
-0.00011168
-9.29244e-05
-7.38907e-05
-5.43472e-05
-3.45447e-05
-1.42859e-05
6.20782e-06
2.71588e-05
4.83053e-05
6.98786e-05
9.16208e-05
0.000113782
0.000136093
0.000158804
0.00018164
0.000204899
0.000228282
0.000252061
0.000275979
0.000300369
0.000324878
0.000349841
0.000375053
0.000400817
0.00042674
0.000453329
0.000480391
0.000508094
0.000536169
0.000565413
0.000595393
0.000626185
0.000658067
0.000691903
0.000726649
0.000762943
0.00080183
0.000843288
0.000886185
0.000932761
0.000983255
0.00105189
0.00110477
0.00117732
0.00125785
0.00132231
0.00139539
0.00150212
0.00160466
0.0016696
0.00173484
0.00186933
0.00157939
0.00030506
-0.000398421
-0.000279135
-0.000359617
-0.00041841
-0.000408399
-0.000362867
-0.000348545
-0.000397006
-0.000381019
-0.000297814
-0.000297541
-0.000310856
-0.000247598
-0.000206786
-0.000486094
-0.000960501
-0.00108545
-0.000998012
-0.000935205
-0.00091055
-0.000853224
-0.000771476
-0.000718705
-0.000680671
-0.000624671
-0.000569389
-0.000533266
-0.000499676
-0.000460355
-0.000427849
-0.000403945
-0.00037921
-0.000354173
-0.000333924
-0.000316155
-0.000297299
-0.000279246
-0.000263092
-0.000246975
-0.000230083
-0.000213659
-0.000197449
-0.00018068
-0.000163361
-0.000146074
-0.000128369
-0.000110148
-9.14741e-05
-7.26183e-05
-5.32297e-05
-3.34812e-05
-1.33198e-05
7.06235e-06
2.79312e-05
4.90424e-05
7.05403e-05
9.22244e-05
0.000114349
0.000136647
0.000159306
0.000182128
0.000205393
0.000228782
0.000252528
0.000276493
0.000300939
0.000325448
0.000350423
0.000375798
0.000401639
0.000427536
0.000454306
0.0004817
0.000509384
0.000537507
0.000567378
0.000597751
0.000628267
0.000660773
0.000696009
0.000730652
0.000766602
0.000808028
0.000851471
0.000892558
0.000940509
0.000998036
0.0010567
0.00112356
0.0011869
0.00125615
0.00134393
0.00143405
0.0015177
0.00161257
0.00171306
0.00185173
0.00200916
0.00144539
0.000348383
-0.000363359
-0.000416955
-0.000370495
-0.000348294
-0.000375753
-0.000395197
-0.000386627
-0.000353867
-0.000327332
-0.000345479
-0.000309382
-0.000269617
-0.000237043
-0.000187024
-0.00043047
-0.000825727
-0.00103101
-0.00100445
-0.000964175
-0.000891598
-0.000829499
-0.000786121
-0.000728996
-0.000665629
-0.000618747
-0.000578358
-0.000532382
-0.000491254
-0.000460141
-0.000430336
-0.000400266
-0.000375274
-0.000354253
-0.000333117
-0.000312995
-0.000295393
-0.000278624
-0.00026144
-0.000244892
-0.000228939
-0.000212705
-0.000196007
-0.000179408
-0.000162536
-0.000145181
-0.000127366
-0.000109364
-9.08535e-05
-7.19394e-05
-5.25862e-05
-3.29746e-05
-1.28653e-05
7.536e-06
2.83482e-05
4.9388e-05
7.08698e-05
9.25649e-05
0.000114641
0.000136898
0.000159574
0.000182415
0.000205618
0.000228999
0.000252826
0.000276781
0.000301129
0.000325751
0.000350864
0.000376084
0.000401888
0.000428174
0.000454942
0.000481941
0.000510054
0.000538835
0.000568027
0.000598149
0.000630292
0.000662896
0.000696249
0.000732515
0.000771432
0.000809991
0.000851706
0.000899647
0.000948769
0.000997735
0.0010567
0.00112356
0.0011869
0.00125615
0.00134393
0.00143405
0.0015177
0.00161257
0.00171306
0.00185173
0.00200916
0.00144539
0.000348383
-0.000363359
-0.000416955
-0.000370495
-0.000348294
-0.000375753
-0.000395197
-0.000386627
-0.000353867
-0.000327332
-0.000345479
-0.000309382
-0.000269617
-0.000237043
-0.000187024
-0.00043047
-0.000825727
-0.00103101
-0.00100445
-0.000964175
-0.000891598
-0.000829499
-0.000786121
-0.000728996
-0.000665629
-0.000618747
-0.000578358
-0.000532382
-0.000491254
-0.000460141
-0.000430336
-0.000400266
-0.000375274
-0.000354253
-0.000333117
-0.000312995
-0.000295393
-0.000278624
-0.00026144
-0.000244892
-0.000228939
-0.000212705
-0.000196007
-0.000179408
-0.000162536
-0.000145181
-0.000127366
-0.000109364
-9.08535e-05
-7.19394e-05
-5.25862e-05
-3.29746e-05
-1.28653e-05
7.536e-06
2.83482e-05
4.9388e-05
7.08698e-05
9.25649e-05
0.000114641
0.000136898
0.000159574
0.000182415
0.000205618
0.000228999
0.000252826
0.000276781
0.000301129
0.000325751
0.000350864
0.000376084
0.000401888
0.000428174
0.000454942
0.000481941
0.000510054
0.000538835
0.000568027
0.000598149
0.000630292
0.000662896
0.000696249
0.000732515
0.000771432
0.000809991
0.000851706
0.000899647
0.000948769
0.000997735
0.00105189
0.00110477
0.00117732
0.00125785
0.00132231
0.00139539
0.00150212
0.00160466
0.0016696
0.00173484
0.00186933
0.00157939
0.00030506
-0.000398421
-0.000279135
-0.000359617
-0.00041841
-0.000408399
-0.000362867
-0.000348545
-0.000397006
-0.000381019
-0.000297814
-0.000297541
-0.000310856
-0.000247598
-0.000206786
-0.000486094
-0.000960501
-0.00108545
-0.000998012
-0.000935205
-0.00091055
-0.000853224
-0.000771476
-0.000718705
-0.000680671
-0.000624671
-0.000569389
-0.000533266
-0.000499676
-0.000460355
-0.000427849
-0.000403945
-0.00037921
-0.000354173
-0.000333924
-0.000316155
-0.000297299
-0.000279246
-0.000263092
-0.000246975
-0.000230083
-0.000213659
-0.000197449
-0.00018068
-0.000163361
-0.000146074
-0.000128369
-0.000110148
-9.14741e-05
-7.26183e-05
-5.32297e-05
-3.34812e-05
-1.33198e-05
7.06235e-06
2.79312e-05
4.90424e-05
7.05403e-05
9.22244e-05
0.000114349
0.000136647
0.000159306
0.000182128
0.000205393
0.000228782
0.000252528
0.000276493
0.000300939
0.000325448
0.000350423
0.000375798
0.000401639