# vtk DataFile Version 3.0
fluid_state
ASCII
DATASET RECTILINEAR_GRID
DIMENSIONS 100 40 1
X_COORDINATES 100 float
0.5 1.5 2.5 3.5 4.5 5.5 6.5 7.5 8.5 9.5 10.5 11.5 12.5 13.5 14.5 15.5 16.5 17.5 18.5 19.5 20.5 21.5 22.5 23.5 24.5 25.5 26.5 27.5 28.5 29.5 30.5 31.5 32.5 33.5 34.5 35.5 36.5 37.5 38.5 39.5 40.5 41.5 42.5 43.5 44.5 45.5 46.5 47.5 48.5 49.5 50.5 51.5 52.5 53.5 54.5 55.5 56.5 57.5 58.5 59.5 60.5 61.5 62.5 63.5 64.5 65.5 66.5 67.5 68.5 69.5 70.5 71.5 72.5 73.5 74.5 75.5 76.5 77.5 78.5 79.5 80.5 81.5 82.5 83.5 84.5 85.5 86.5 87.5 88.5 89.5 90.5 91.5 92.5 93.5 94.5 95.5 96.5 97.5 98.5 99.5 
Y_COORDINATES 40 float
0.5 1.5 2.5 3.5 4.5 5.5 6.5 7.5 8.5 9.5 10.5 11.5 12.5 13.5 14.5 15.5 16.5 17.5 18.5 19.5 20.5 21.5 22.5 23.5 24.5 25.5 26.5 27.5 28.5 29.5 30.5 31.5 32.5 33.5 34.5 35.5 36.5 37.5 38.5 39.5 
Z_COORDINATES 1 float
0
POINT_DATA 4000
SCALARS density_difference float 1
LOOKUP_TABLE default
0.000758477
0.000765934
0.000771849
0.000775573
0.000774049
0.000764833
0.000747683
0.000728641
0.000700083
0.000650368
0.000598074
0.000541512
0.000455227
0.000360903
0.000267241
0.000149696
2.66535e-05
-9.26806e-05
-0.000224157
-0.000346173
-0.00045473
-0.000570326
-0.000663369
-0.000733018
-0.000806033
-0.00085786
-0.000885205
-0.000914141
-0.000929051
-0.000925287
-0.000921507
-0.000913311
-0.000893942
-0.000869954
-0.000847218
-0.000822799
-0.000792223
-0.000760572
-0.0007324
-0.000702734
-0.000669549
-0.00063811
-0.000609093
-0.000578507
-0.000546969
-0.000517553
-0.000489143
-0.000459799
-0.000430804
-0.000403333
-0.000376117
-0.000348606
-0.000321802
-0.000295851
-0.000269901
-0.000244042
-0.000218787
-0.000193918
-0.000169029
-0.000144368
-0.000120074
-9.59217e-05
-7.179e-05
-4.78596e-05
-2.40965e-05
-3.8773e-07
2.32866e-05
4.68448e-05
7.03417e-05
9.38001e-05
0.000117254
0.00014066
0.00016402
0.000187354
0.000210742
0.000234076
0.000257324
0.000280613
0.00030399
0.000327184
0.000350284
0.00037357
0.000396824
0.000419657
0.000442565
0.000465782
0.000488505
0.000510636
0.000533314
0.000556019
0.000577344
0.000598432
0.000620571
0.000641375
0.000660011
0.000679609
0.000699495
0.000715549
0.000729954
0.000745751
0.000749284
0.000756713
0.000761932
0.000763716
0.000759857
0.000746115
0.000730058
0.00071295
0.000673024
0.000620692
0.00058005
0.000514603
0.000417684
0.000334645
0.000246113
0.000122188
-2.37438e-06
-0.000109639
-0.000230905
-0.000359973
-0.000462519
-0.00056148
-0.000658359
-0.000723068
-0.000784478
-0.000844697
-0.000866872
-0.000882422
-0.00090876
-0.000909993
-0.000894403
-0.000886883
-0.000877725
-0.000854535
-0.000825892
-0.000803848
-0.00078084
-0.000749025
-0.000717273
-0.000690983
-0.000662372
-0.000629747
-0.000599466
-0.000571903
-0.000542338
-0.00051185
-0.000483516
-0.000456185
-0.000427736
-0.000399674
-0.000372989
-0.000346567
-0.00031973
-0.000293601
-0.000268169
-0.000242781
-0.000217364
-0.000192553
-0.000168003
-0.000143489
-0.00011908
-9.50678e-05
-7.10926e-05
-4.71918e-05
-2.33917e-05
1.91142e-07
2.38281e-05
4.73603e-05
7.08462e-05
9.42331e-05
0.000117694
0.000141027
0.000164377
0.000187698
0.000211056
0.000234266
0.000257573
0.000280859
0.000304081
0.000327169
0.000350448
0.000373597
0.000396526
0.000419437
0.000442583
0.000465269
0.000487627
0.000510234
0.00053284
0.000554388
0.000575778
0.000597667
0.000618651
0.000637933
0.000657665
0.00067742
0.000694525
0.000709828
0.000725769
0.00073957
0.00074333
0.000753441
0.000756815
0.000753561
0.000748852
0.000740604
0.000722822
0.000691191
0.000655895
0.000619928
0.000557138
0.000477079
0.000411417
0.000320278
0.000199454
9.76368e-05
-1.41784e-05
-0.000147754
-0.000261279
-0.000374329
-0.000491842
-0.000576696
-0.000661123
-0.000744567
-0.000788426
-0.000826704
-0.000870163
-0.000883952
-0.000885785
-0.000892752
-0.000889353
-0.000873308
-0.000854616
-0.000839076
-0.00081796
-0.000788884
-0.000762209
-0.000738682
-0.000709683
-0.000678214
-0.000650431
-0.000623279
-0.000592831
-0.000562971
-0.000535469
-0.000507577
-0.000478418
-0.000450625
-0.000423881
-0.000396729
-0.000369437
-0.000343318
-0.00031749
-0.000291536
-0.000265849
-0.000240911
-0.000215951
-0.000191105
-0.000166531
-0.000142366
-0.000118103
-9.40534e-05
-7.01446e-05
-4.64555e-05
-2.26704e-05
9.08756e-07
2.44683e-05
4.78836e-05
7.13983e-05
9.47497e-05
0.000118138
0.000141411
0.000164809
0.000188057
0.00021134
0.00023455
0.000257902
0.000281038
0.000304205
0.000327382
0.000350627
0.000373504
0.000396501
0.000419582
0.000442429
0.000464768
0.000487515
0.000510167
0.000531953
0.000553403
0.000575639
0.000596841
0.000616447
0.000636589
0.000657205
0.00067464
0.000690577
0.000708189
0.000723669
0.000733519
0.000744175
0.000749919
0.000752816
0.00075312
0.000746706
0.000736003
0.000717801
0.000685071
0.000652715
0.000612021
0.000539069
0.000466776
0.000399452
0.000290519
0.000170552
6.7394e-05
-5.08456e-05
-0.00019131
-0.000315344
-0.000418119
-0.000534051
-0.000632008
-0.000700699
-0.000775233
-0.00082514
-0.000845134
-0.000880353
-0.000901197
-0.000889265
-0.000885344
-0.000885409
-0.000870272
-0.000845135
-0.000824151
-0.000806518
-0.000780876
-0.000749849
-0.000724247
-0.000699652
-0.000669907
-0.000639503
-0.00061285
-0.000585528
-0.000556025
-0.000527448
-0.000500856
-0.000473391
-0.000445447
-0.000418561
-0.000392603
-0.000366025
-0.000339731
-0.000314173
-0.000289013
-0.000263528
-0.000238551
-0.000213934
-0.000189505
-0.000164949
-0.000140859
-0.000116852
-9.2983e-05
-6.90675e-05
-4.54907e-05
-2.18428e-05
1.65672e-06
2.52033e-05
4.85309e-05
7.19888e-05
9.52758e-05
0.000118649
0.000141885
0.000165241
0.000188408
0.000211723
0.000234923
0.000258175
0.000281251
0.000304543
0.000327644
0.000350691
0.000373653
0.000396842
0.000419599
0.000442254
0.000465003
0.000487756
0.000509678
0.000531672
0.000553864
0.00057534
0.000595635
0.000616498
0.000637047
0.000655532
0.000673038
0.000691446
0.000707464
0.000720119
0.000732695
0.000746376
0.000750018
0.000755693
0.000758686
0.00075048
0.000734971
0.000718123
0.000695486
0.000654236
0.000592524
0.000539549
0.000476561
0.000359073
0.000251574
0.000165962
1.6582e-05
-0.000131918
-0.000241181
-0.000380058
-0.00051216
-0.000605561
-0.000714284
-0.000787182
-0.000823167
-0.000883396
-0.000917802
-0.000906829
-0.000913974
-0.00092257
-0.000906664
-0.000881084
-0.000864569
-0.000850918
-0.000822586
-0.000790626
-0.000769616
-0.000746069
-0.000713802
-0.00068437
-0.000660401
-0.000632521
-0.000601942
-0.000574581
-0.000548919
-0.00052062
-0.000492468
-0.000466322
-0.000440358
-0.000413163
-0.000386962
-0.000361638
-0.000336174
-0.000310355
-0.000285483
-0.000260811
-0.000236108
-0.000211411
-0.000187363
-0.000163222
-0.000139205
-0.000115242
-9.16712e-05
-6.79239e-05
-4.4378e-05
-2.08164e-05
2.49716e-06
2.59985e-05
4.92892e-05
7.26627e-05
9.58545e-05
0.000119238
0.000142416
0.000165705
0.000188853
0.000212193
0.000235297
0.000258524
0.000281658
0.000304935
0.000327893
0.000351025
0.000374103
0.000397139
0.000419765
0.00044273
0.000465531
0.00048789
0.000509916
0.00053252
0.000554386
0.000575276
0.000596368
0.000617942
0.000637303
0.000655562
0.000675059
0.00069343
0.000707267
0.000721282
0.000736669
0.000749317
0.000760938
0.000765839
0.000761705
0.000759383
0.000750563
0.00072682
0.000700165
0.000660997
0.000600802
0.000542302
0.000457648
0.00033974
0.000236974
0.000111602
-4.9031e-05
-0.000197833
-0.000335813
-0.000478846
-0.000629637
-0.000730014
-0.00081645
-0.000901867
-0.00093824
-0.000959462
-0.000992166
-0.000979855
-0.000959024
-0.000954662
-0.000933791
-0.000903321
-0.000873623
-0.000848263
-0.000823733
-0.000791399
-0.000759841
-0.00073402
-0.000706896
-0.000675864
-0.000647281
-0.000621032
-0.000593482
-0.00056472
-0.000538013
-0.000511926
-0.000485092
-0.000458183
-0.00043272
-0.000407147
-0.000381355
-0.000355872
-0.000331266
-0.00030633
-0.000281559
-0.000257075
-0.000233064
-0.00020875
-0.000184775
-0.00016091
-0.000137312
-0.000113492
-9.00226e-05
-6.64953e-05
-4.31659e-05
-1.96654e-05
3.54982e-06
2.69204e-05
5.00967e-05
7.34403e-05
9.65699e-05
0.00011988
0.000142981
0.000166283
0.000189407
0.000212674
0.00023574
0.000259057
0.000282153
0.000305322
0.000328359
0.000351659
0.000374567
0.000397528
0.000420503
0.000443563
0.000465952
0.000488575
0.00051129
0.00053352
0.000554896
0.000576985
0.000598723
0.000618922
0.000638675
0.000659585
0.000678318
0.000694479
0.000711719
0.000728885
0.000739952
0.000761393
0.00077388
0.000776884
0.000775883
0.00077702
0.000768395
0.00074459
0.000711646
0.000674211
0.000627275
0.000539414
0.000425948
0.000350577
0.000220375
1.04302e-05
-0.00011496
-0.000254768
-0.000476696
-0.000628719
-0.000751882
-0.000895246
-0.000963341
-0.00102848
-0.00110112
-0.00107759
-0.00105269
-0.00107577
-0.00104888
-0.000993224
-0.000955592
-0.000936066
-0.000903088
-0.000852012
-0.000818692
-0.000796116
-0.000760276
-0.000721995
-0.00069559
-0.000669414
-0.000637139
-0.000607165
-0.000582372
-0.000555498
-0.000526904
-0.000500694
-0.000476217
-0.000449961
-0.000423895
-0.000399262
-0.000374978
-0.000349697
-0.000325171
-0.000301207
-0.000277237
-0.000252847
-0.000229173
-0.00020554
-0.000181938
-0.000158175
-0.000134923
-0.000111489
-8.81858e-05
-6.47753e-05
-4.17015e-05
-1.83809e-05
4.74817e-06
2.80114e-05
5.10384e-05
7.43194e-05
9.7385e-05
0.000120617
0.000143666
0.000166959
0.000190015
0.000213261
0.00023636
0.000259666
0.000282693
0.000305951
0.000329081
0.000352307
0.000375219
0.000398452
0.000421486
0.000444398
0.000467052
0.000490149
0.000512724
0.000534893
0.000557096
0.000579691
0.00060095
0.000621702
0.000643094
0.000664029
0.000682181
0.000700523
0.000719885
0.000735834
0.000747508
0.000778913
0.000784418
0.00079431
0.000805981
0.000798194
0.000782462
0.000776249
0.000747127
0.000690803
0.000637367
0.000556124
0.000444075
0.000325097
0.000154572
-1.51018e-05
-0.000187145
-0.000405114
-0.000596952
-0.000781401
-0.000922964
-0.00107721
-0.00117261
-0.00118918
-0.00121475
-0.00123618
-0.00118717
-0.00115106
-0.00110985
-0.00105948
-0.00101546
-0.000958336
-0.00091441
-0.000877402
-0.00083084
-0.000788456
-0.000756501
-0.000722881
-0.000686726
-0.00065513
-0.000627532
-0.000597997
-0.000568658
-0.000542164
-0.00051672
-0.000489899
-0.00046422
-0.000439844
-0.00041539
-0.000390314
-0.000366397
-0.000342733
-0.000318878
-0.000294885
-0.00027169
-0.000248271
-0.000224872
-0.000201464
-0.000178513
-0.000155233
-0.000132139
-0.000108978
-8.6085e-05
-6.28936e-05
-3.99423e-05
-1.68337e-05
6.0729e-06
2.92383e-05
5.21796e-05
7.53278e-05
9.82793e-05
0.000121485
0.000144492
0.000167701
0.000190714
0.000214009
0.000237088
0.000260326
0.000283419
0.000306808
0.000329872
0.000353086
0.000376276
0.000399654
0.00042251
0.000445676
0.000468922
0.000491944
0.000514333
0.000537485
0.000560449
0.000582386
0.000604115
0.000627163
0.000648658
0.000668316
0.000689345
0.000711163
0.000728059
0.000743848
0.000763569
0.000794571
0.000807607
0.000822391
0.000829313
0.000825892
0.000821552
0.000810137
0.000778925
0.000730558
0.00065908
0.000578842
0.000482509
0.000284369
9.1131e-05
-6.05356e-06
-0.000287292
-0.000575273
-0.000699203
-0.000939764
-0.00115119
-0.00124233
-0.00137046
-0.00141111
-0.00132869
-0.00135657
-0.00134906
-0.00123244
-0.00116255
-0.00112209
-0.00107369
-0.000995068
-0.000927631
-0.000892087
-0.000847465
-0.000791386
-0.000750914
-0.000719372
-0.000681773
-0.000644309
-0.000615084
-0.000587079
-0.000556747
-0.00052843
-0.000503812
-0.000478405
-0.000452431
-0.000428045
-0.000405042
-0.000381015
-0.000357202
-0.000334214
-0.000311595
-0.000288241
-0.00026535
-0.000242687
-0.000220085
-0.00019705
-0.000174453
-0.000151746
-0.000129091
-0.000106168
-8.35774e-05
-6.07368e-05
-3.80092e-05
-1.50659e-05
7.63494e-06
3.06223e-05
5.34453e-05
7.6483e-05
9.93349e-05
0.000122467
0.0001454
0.000168566
0.00019158
0.000214841
0.000237879
0.000261186
0.000284349
0.000307693
0.000330815
0.000354266
0.000377518
0.000400854
0.000424042
0.000447608
0.000470791
0.000493988
0.000517231
0.000540762
0.000563548
0.000586441
0.000609641
0.00063265
0.000654394
0.000676671
0.000699283
0.000720337
0.000739581
0.000760242
0.000779855
0.000815498
0.000840429
0.000851675
0.000852877
0.000869358
0.000875879
0.000841881
0.00081404
0.000797555
0.000713617
0.000593987
0.000488708
0.000321251
0.00010996
-0.000142995
-0.000394461
-0.000545851
-0.000838862
-0.00113343
-0.00135736
-0.00142679
-0.00149928
-0.00158902
-0.00156973
-0.00144424
-0.00138334
-0.00132053
-0.00127648
-0.00118007
-0.0010763
-0.00103255
-0.000974904
-0.000896789
-0.000844015
-0.000805241
-0.000756443
-0.000708285
-0.00067323
-0.000640336
-0.000603978
-0.00057166
-0.000545083
-0.000517296
-0.000489195
-0.000464345
-0.00044115
-0.00041647
-0.000392663
-0.000370391
-0.000348133
-0.000325019
-0.00030284
-0.00028097
-0.000258829
-0.000236325
-0.000214441
-0.000192322
-0.000170093
-0.000147678
-0.000125603
-0.000103164
-8.07832e-05
-5.82214e-05
-3.58565e-05
-1.31493e-05
9.41943e-06
3.2205e-05
5.48343e-05
7.77704e-05
0.000100549
0.000123556
0.000146411
0.000169568
0.000192553
0.000215748
0.000238817
0.0002622
0.000285348
0.000308701
0.000332019
0.000355603
0.000378826
0.000402372
0.000426003
0.000449657
0.000472871
0.000496784
0.000520705
0.000544104
0.000567388
0.000591969
0.000615742
0.000638369
0.000662194
0.000687418
0.000709493
0.000730808
0.000755927
0.000779567
0.000795788
0.000845261
0.000865522
0.000883307
0.000902157
0.000914111
0.000911133
0.000905304
0.00089034
0.000839168
0.000768906
0.00067268
0.000508291
0.000363099
0.000168493
-0.000263973
-0.000454907
-0.000518432
-0.000925066
-0.0011551
-0.00142691
-0.00171875
-0.00174753
-0.00162842
-0.001677
-0.00154432
-0.00144452
-0.00142106
-0.00132238
-0.00121895
-0.00111689
-0.00104976
-0.000990287
-0.000915537
-0.000853691
-0.000805777
-0.000756137
-0.00070728
-0.000666742
-0.000630487
-0.000594463
-0.000560646
-0.000531456
-0.000504002
-0.000476767
-0.000450922
-0.000427527
-0.000404413
-0.000381292
-0.000358891
-0.000337556
-0.000315824
-0.000294123
-0.000272678
-0.000251571
-0.000229945
-0.000208444
-0.000186892
-0.000165408
-0.000143492
-0.000121739
-9.97678e-05
-7.78252e-05
-5.55502e-05
-3.3429e-05
-1.1025e-05
1.13119e-05
3.39261e-05
5.64081e-05
7.91815e-05
0.00010184
0.000124762
0.000147572
0.000170649
0.00019358
0.000216799
0.000239906
0.000263237
0.000286433
0.000309966
0.000333343
0.000356903
0.000380424
0.000404308
0.000427914
0.000451761
0.000475755
0.000499996
0.000523815
0.000548173
0.000572811
0.000597315
0.00062147
0.000646709
0.000671942
0.00069646
0.000721178
0.000747312
0.000772231
0.000795827
0.000820389
0.000874861
0.000893912
0.000923557
0.000954567
0.000958557
0.000960723
0.000988051
0.000969106
0.000888047
0.000849297
0.000788925
0.000580292
0.000371226
0.000211496
-6.85496e-05
-0.000452375
-0.000862495
-0.000823014
-0.000959778
-0.00130689
-0.0013397
-0.00164861
-0.00174698
-0.0015266
-0.00160806
-0.0016148
-0.00151559
-0.00129418
-0.00122187
-0.00118869
-0.00106759
-0.000975377
-0.000932812
-0.000873747
-0.000801289
-0.000750437
-0.000710813
-0.00066312
-0.00061792
-0.000584842
-0.000553084
-0.000518648
-0.000489081
-0.000464836
-0.000439289
-0.000413668
-0.000391286
-0.000370308
-0.000347971
-0.00032634
-0.000306006
-0.00028558
-0.000264336
-0.000243718
-0.000223246
-0.000202439
-0.000181203
-0.000160321
-0.00013914
-0.000117767
-9.61197e-05
-7.46358e-05
-5.2771e-05
-3.08689e-05
-8.72329e-06
1.33333e-05
3.57395e-05
5.80973e-05
8.06972e-05
0.000103219
0.000126059
0.000148809
0.000171793
0.000194707
0.000217933
0.000241028
0.000264355
0.000287665
0.000311274
0.000334684
0.000358401
0.000382204
0.000406203
0.000429959
0.000454287
0.000478748
0.000503121
0.000527459
0.00055288
0.000578101
0.000602857
0.000628492
0.000655662
0.000681364
0.000706743
0.000735102
0.000764073
0.000788796
0.000815617
0.000848069
0.000901861
0.000937076
0.000966598
0.000990341
0.00102041
0.00104548
0.00104222
0.00103064
0.00103078
0.000963589
0.000816919
0.000713019
0.000540078
0.000246074
0.000183504
-0.00032246
-0.00111969
-0.000503077
-0.000447618
-0.00102697
-0.000536046
-0.000974653
-0.00120052
-0.00101261
-0.00157911
-0.00169418
-0.00144692
-0.00136289
-0.00125452
-0.00116071
-0.00107789
-0.00100558
-0.000935904
-0.00086625
-0.000807813
-0.000755518
-0.000703471
-0.000656523
-0.000614815
-0.000575696
-0.00054031
-0.0005089
-0.000478886
-0.00045108
-0.00042625
-0.000402783
-0.000379497
-0.000357804
-0.000337227
-0.000316691
-0.000296084
-0.000276277
-0.000256444
-0.00023637
-0.000216146
-0.000196173
-0.000175792
-0.000155248
-0.000134485
-0.000113736
-9.25571e-05
-7.13245e-05
-4.98241e-05
-2.82941e-05
-6.40639e-06
1.54746e-05
3.76387e-05
5.97983e-05
8.22608e-05
0.000104694
0.000127397
0.000150053
0.000173005
0.000195917
0.000219063
0.000242162
0.000265594
0.000288947
0.000312513
0.000336123
0.000360098
0.000383901
0.00040801
0.000432363
0.000456989
0.000481365
0.000506435
0.00053191
0.000557314
0.000582743
0.000609618
0.000636574
0.000663051
0.000690747
0.000720448
0.000748886
0.000777318
0.000809051
0.000841428
0.000870403
0.000932684
0.00097606
0.00100952
0.00103748
0.00108276
0.00111981
0.00111636
0.00112698
0.00115636
0.00107289
0.000931833
0.000882734
0.000732208
0.000399342
0.000130048
-0.000237045
-0.000586567
-0.000393344
-0.000275923
-0.00043822
-0.000471892
-0.000594897
-0.000477513
-0.000554283
-0.00106527
-0.00135047
-0.00136594
-0.00143203
-0.00128483
-0.00112608
-0.00108573
-0.00102353
-0.000928119
-0.000863084
-0.000817199
-0.000756405
-0.00069483
-0.000651485
-0.000612573
-0.000568048
-0.000528754
-0.000499157
-0.000469997
-0.00043966
-0.000413849
-0.000391925
-0.000369165
-0.000346689
-0.000326572
-0.000307324
-0.000287178
-0.000267489
-0.000248514
-0.000229346
-0.000209546
-0.000190006
-0.000170374
-0.000150397
-0.000130002
-0.000109683
-8.90143e-05
-6.81175e-05
-4.6907e-05
-2.56901e-05
-4.10464e-06
1.75843e-05
3.95433e-05
6.15201e-05
8.38263e-05
0.000106157
0.000128738
0.000151327
0.00017422
0.000197091
0.000220207
0.000243349
0.000266786
0.000290166
0.000313836
0.000337595
0.000361628
0.000385599
0.000410021
0.000434614
0.000459406
0.000484276
0.000509941
0.000535749
0.00056166
0.000588198
0.000615996
0.000643542
0.00067136
0.000701136
0.000732295
0.000762051
0.000793329
0.000828932
0.000864032
0.000895398
0.000966443
0.00100326
0.00105128
0.00110207
0.00113689
0.00117335
0.00122683
0.00124648
0.00121148
0.00121953
0.00123228
0.00100038
0.000737516
0.000492505
5.49385e-07
-0.000237707
-0.000346348
-0.000509921
-0.000551598
-0.000355352
-0.000470479
-0.000411528
-0.000361081
-0.000399091
-0.000572465
-0.000842844
-0.0012061
-0.00130054
-0.00122583
-0.00117786
-0.00109235
-0.000994523
-0.000931724
-0.00087741
-0.000807809
-0.000747937
-0.000700881
-0.000649566
-0.000599859
-0.000561595
-0.00052598
-0.000488948
-0.000457575
-0.000431782
-0.00040557
-0.000380239
-0.000358621
-0.00033841
-0.000317463
-0.000297595
-0.000279042
-0.000260294
-0.000241046
-0.000222355
-0.000203685
-0.000184552
-0.00016508
-0.000145729
-0.000125979
-0.000105898
-8.55279e-05
-6.50875e-05
-4.42224e-05
-2.31767e-05
-1.8522e-06
1.95678e-05
4.13428e-05
6.32099e-05
8.53419e-05
0.000107533
0.000130034
0.000152584
0.000175372
0.000198198
0.000221343
0.000244501
0.000267874
0.000291345
0.000315175
0.000338946
0.000363001
0.000387339
0.000412004
0.000436538
0.0004617
0.000487377
0.000513124
0.000538958
0.000566222
0.000593876
0.000621192
0.000649805
0.000680797
0.000710999
0.000741278
0.000775697
0.000811953
0.000845154
0.000881904
0.000925778
0.000993925
0.00103796
0.00109083
0.00115049
0.00119779
0.00124039
0.0013073
0.00135682
0.00134758
0.00136164
0.00138024
0.00128183
0.000968818
0.000236206
-0.000325896
-0.000353108
-0.00044227
-0.000486472
-0.00043703
-0.000391112
-0.000465432
-0.000382657
-0.000351187
-0.000371781
-0.000395251
-0.000424628
-0.000741854
-0.00114578
-0.00126006
-0.00117137
-0.00104369
-0.000987981
-0.000947797
-0.000874001
-0.000798371
-0.000747067
-0.000700192
-0.000645147
-0.000594608
-0.000555509
-0.000519254
-0.000482212
-0.000449713
-0.000422908
-0.000397293
-0.000372231
-0.000349937
-0.00032984
-0.000309774
-0.000290126
-0.000271576
-0.000253443
-0.000234895
-0.000216459
-0.000198146
-0.000179614
-0.000160615
-0.000141541
-0.000122195
-0.000102537
-8.24781e-05
-6.22831e-05
-4.17282e-05
-2.09388e-05
1.78815e-07
2.14238e-05
4.30039e-05
6.47272e-05
8.67291e-05
0.00010883
0.000131227
0.000153704
0.000176439
0.000199259
0.000222356
0.000245504
0.000268933
0.000292466
0.000316279
0.000340166
0.000364424
0.000388841
0.000413576
0.00043851
0.000464
0.000489729
0.000515902
0.000542599
0.000570141
0.000598028
0.000626713
0.000656572
0.000687645
0.000719207
0.000752365
0.0007879
0.000824923
0.000862301
0.00090307
0.000948516
0.00101557
0.0010766
0.00112759
0.00117888
0.00125388
0.00132584
0.00137086
0.00142824
0.00151064
0.00151752
0.0014628
0.00158893
0.00118438
3.61274e-05
-0.000483607
-0.000441864
-0.000400001
-0.000371222
-0.000415036
-0.000475271
-0.000371634
-0.000360625
-0.000419554
-0.000372497
-0.000263495
-0.000260823
-0.000472858
-0.000952229
-0.00118125
-0.00110451
-0.00105985
-0.00100855
-0.000920519
-0.000853595
-0.000812589
-0.000752789
-0.000684387
-0.000638253
-0.000599295
-0.000550807
-0.000507789
-0.000477386
-0.000446969
-0.000414596
-0.000388429
-0.000366868
-0.000344024
-0.000321859
-0.000302934
-0.000284745
-0.000265599
-0.000247236
-0.00022979
-0.00021189
-0.000193424
-0.000175264
-0.000156963
-0.000138113
-0.00011889
-9.96349e-05
-7.99565e-05
-5.98991e-05
-3.95391e-05
-1.90267e-05
1.89073e-06
2.3037e-05
4.44554e-05
6.60205e-05
8.79218e-05
0.000109968
0.000132257
0.00015466
0.000177373
0.000200184
0.000223212
0.000246372
0.00026987
0.000293413
0.000317199
0.000341254
0.000365666
0.000390057
0.000414921
0.000440302
0.000465916
0.000491599
0.000518414
0.000545864
0.000573213
0.00060146
0.00063192
0.000662362
0.000692752
0.000726546
0.000763019
0.000797508
0.000834514
0.000879164
0.000923491
0.000964078
0.00103713
0.00109446
0.00115698
0.001221
0.00129285
0.00137472
0.00144435
0.0015081
0.00160753
0.00166625
0.00165466
0.00171845
0.000707472
-0.000306568
-0.000334347
-0.000402474
-0.000411861
-0.000404649
-0.000414794
-0.000410617
-0.000367586
-0.000387385
-0.000355489
-0.000323603
-0.000288488
-0.000291352
-0.000302378
-0.000687733
-0.00110515
-0.0010838
-0.00106071
-0.000985007
-0.000913697
-0.000862015
-0.000804644
-0.000742711
-0.000687866
-0.000637906
-0.000590199
-0.000546774
-0.000507481
-0.000471633
-0.000439708
-0.000411017
-0.000384447
-0.000360292
-0.000338393
-0.000317761
-0.000297972
-0.000279278
-0.000261216
-0.000243314
-0.000225508
-0.000207897
-0.000190116
-0.000172095
-0.000153828
-0.00013537
-0.000116508
-9.73451e-05
-7.78376e-05
-5.80601e-05
-3.78878e-05
-1.74652e-05
3.29208e-06
2.42753e-05
4.55883e-05
6.70882e-05
8.88826e-05
0.000110839
0.000133078
0.000155462
0.000178106
0.000200876
0.000223928
0.000247108
0.000270544
0.000294129
0.000318047
0.000342102
0.000366474
0.000391121
0.000416188
0.000441449
0.000467249
0.000493568
0.000520408
0.000547676
0.000576002
0.000605136
0.000634974
0.000665988
0.000698865
0.000732751
0.000768098
0.000806161
0.000846728
0.000888857
0.000934615
0.000984454
0.00105254
0.00110486
0.00117692
0.00125718
0.00132128
0.00139419
0.00150091
0.00160362
0.0016685
0.00173367
0.00186846
0.00157727
0.000297536
-0.000408695
-0.000288734
-0.000370297
-0.000429735
-0.000419734
-0.000374203
-0.000360019
-0.00040885
-0.00039274
-0.000309145
-0.000309121
-0.00032245
-0.000258488
-0.000217947
-0.000500198
-0.000978737
-0.00110509
-0.00101728
-0.000953946
-0.000928863
-0.000870836
-0.000788068
-0.000734228
-0.000695113
-0.000637839
-0.000581175
-0.000543666
-0.000508676
-0.000467871
-0.000433891
-0.000408529
-0.000382355
-0.000355864
-0.000334219
-0.000315068
-0.000294882
-0.000275506
-0.000258103
-0.000240747
-0.000222687
-0.000205107
-0.000187824
-0.000169993
-0.000151697
-0.000133448
-0.000114875
-9.57983e-05
-7.63701e-05
-5.6776e-05
-3.67561e-05
-1.63926e-05
4.27024e-06
2.51363e-05
4.63702e-05
6.78297e-05
8.9552e-05
0.000111445
0.00013365
0.000156017
0.000178614
0.000201364
0.000224427
0.000247608
0.000271015
0.000294642
0.000318622
0.000342672
0.00036706
0.000391868
0.000417017
0.000442248
0.000468234
0.000494885
0.000521711
0.000549024
0.000577985
0.000607512
0.00063708
0.000668717
0.000703008
0.000736792
0.000771799
0.000812411
0.000854984
0.0008953
0.000942445
0.000999355
0.00105739
0.00112378
0.00118661
0.00125552
0.00134306
0.00143313
0.00151671
0.0016117
0.00171232
0.0018515
0.00200953
0.00144339
0.000341759
-0.000373028
-0.000427615
-0.000381178
-0.000359012
-0.000387013
-0.000406742
-0.000398219
-0.000365395
-0.000338865
-0.000357191
-0.000320726
-0.000280998
-0.000248333
-0.000197667
-0.00044339
-0.000842624
-0.00105001
-0.0010235
-0.000983028
-0.000909812
-0.000846915
-0.000802716
-0.000744571
-0.000680003
-0.000631861
-0.000590177
-0.000542793
-0.000500219
-0.000467653
-0.000436397
-0.000404843
-0.000378404
-0.000355947
-0.000333413
-0.000311898
-0.000292965
-0.000274881
-0.000256441
-0.000238652
-0.000221532
-0.000204146
-0.000186371
-0.000168711
-0.000150862
-0.000132547
-0.000113862
-9.50075e-05
-7.57415e-05
-5.60913e-05
-3.61051e-05
-1.58815e-05
4.73057e-06
2.56135e-05
4.67923e-05
6.81777e-05
8.98854e-05
0.000111787
0.000133946
0.000156268
0.000178884
0.000201652
0.000224654
0.000247826
0.000271316
0.000294932
0.000318814
0.000342976
0.000367505
0.000392155
0.000417268
0.000442888
0.000468876
0.000495128
0.000522386
0.000550361
0.000578643
0.000607914
0.000639119
0.000670858
0.000703258
0.000738668
0.000776665
0.0008144
0.000855231
0.000902435
0.000950776
0.000999078
0.00105739
0.00112378
0.00118661
0.00125552
0.00134306
0.00143313
0.00151671
0.0016117
0.00171232
0.0018515
0.00200953
0.00144339
0.000341759
-0.000373028
-0.000427615
-0.000381178
-0.000359012
-0.000387013
-0.000406742
-0.000398219
-0.000365395
-0.000338865
-0.000357191
-0.000320726
-0.000280998
-0.000248333
-0.000197667
-0.00044339
-0.000842624
-0.00105001
-0.0010235
-0.000983028
-0.000909812
-0.000846915
-0.000802716
-0.000744571
-0.000680003
-0.000631861
-0.000590177
-0.000542793
-0.000500219
-0.000467653
-0.000436397
-0.000404843
-0.000378404
-0.000355947
-0.000333413
-0.000311898
-0.000292965
-0.000274881
-0.000256441
-0.000238652
-0.000221532
-0.000204146
-0.000186371
-0.000168711
-0.000150862
-0.000132547
-0.000113862
-9.50075e-05
-7.57415e-05
-5.60913e-05
-3.61051e-05
-1.58815e-05
4.73057e-06
2.56135e-05
4.67923e-05
6.81777e-05
8.98854e-05
0.000111787
0.000133946
0.000156268
0.000178884
0.000201652
0.000224654
0.000247826
0.000271316
0.000294932
0.000318814
0.000342976
0.000367505
0.000392155
0.000417268
0.000442888
0.000468876
0.000495128
0.000522386
0.000550361
0.000578643
0.000607914
0.000639119
0.000670858
0.000703258
0.000738668
0.000776665
0.0008144
0.000855231
0.000902435
0.000950776
0.000999078
0.00105254
0.00110486
0.00117692
0.00125718
0.00132128
0.00139419
0.00150091
0.00160362
0.0016685
0.00173367
0.00186846
0.00157727
0.000297536
-0.000408695
-0.000288734
-0.000370297
-0.000429735
-0.000419734
-0.000374203
-0.000360019
-0.00040885
-0.00039274
-0.000309145
-0.000309121
-0.00032245
-0.000258488
-0.000217947
-0.000500198
-0.000978737
-0.00110509
-0.00101728
-0.000953946
-0.000928863
-0.000870836
-0.000788068
-0.000734228
-0.000695113
-0.000637839
-0.000581175
-0.000543666
-0.000508676
-0.000467871
-0.000433891
-0.000408529
-0.000382355
-0.000355864
-0.000334219
-0.000315068
-0.000294882
-0.000275506
-0.000258103
-0.000240747
-0.000222687
-0.000205107
-0.000187824
-0.000169993
-0.000151697
-0.000133448
-0.000114875
-9.57983e-05
-7.63701e-05
-5.6776e-05
-3.67561e-05
-1.63926e-05
4.27024e-06
2.51363e-05
4.63702e-05
6.78297e-05
8.9552e-05
0.000111445
0.00013365
0.000156017
0.000178614
0.000201364
0.000224427
0.000247608
0.000271015
0.000294642
0.000318622
0.000342672
0.00036706
0.000391868
0.000417017
0.000442248