# vtk DataFile Version 3.0
fluid_state
ASCII
DATASET RECTILINEAR_GRID
DIMENSIONS 100 40 1
X_COORDINATES 100 float
0.5 1.5 2.5 3.5 4.5 5.5 6.5 7.5 8.5 9.5 10.5 11.5 12.5 13.5 14.5 15.5 16.5 17.5 18.5 19.5 20.5 21.5 22.5 23.5 24.5 25.5 26.5 27.5 28.5 29.5 30.5 31.5 32.5 33.5 34.5 35.5 36.5 37.5 38.5 39.5 40.5 41.5 42.5 43.5 44.5 45.5 46.5 47.5 48.5 49.5 50.5 51.5 52.5 53.5 54.5 55.5 56.5 57.5 58.5 59.5 60.5 61.5 62.5 63.5 64.5 65.5 66.5 67.5 68.5 69.5 70.5 71.5 72.5 73.5 74.5 75.5 76.5 77.5 78.5 79.5 80.5 81.5 82.5 83.5 84.5 85.5 86.5 87.5 88.5 89.5 90.5 91.5 92.5 93.5 94.5 95.5 96.5 97.5 98.5 99.5 
Y_COORDINATES 40 float
0.5 1.5 2.5 3.5 4.5 5.5 6.5 7.5 8.5 9.5 10.5 11.5 12.5 13.5 14.5 15.5 16.5 17.5 18.5 19.5 20.5 21.5 22.5 23.5 24.5 25.5 26.5 27.5 28.5 29.5 30.5 31.5 32.5 33.5 34.5 35.5 36.5 37.5 38.5 39.5 
Z_COORDINATES 1 float
0
POINT_DATA 4000
SCALARS density_difference float 1
LOOKUP_TABLE default
0.000744247
0.000765209
0.000784678
0.000802377
0.000814551
0.000819128
0.000816985
0.000812507
0.000798621
0.000765788
0.000730303
0.000690327
0.000623331
0.0005485
0.000473948
0.000377295
0.000274634
0.000174492
6.28924e-05
-4.18747e-05
-0.000136059
-0.000237203
-0.000319697
-0.000383071
-0.00045031
-0.000499743
-0.000528539
-0.000560118
-0.000579959
-0.000583694
-0.000588911
-0.000591003
-0.000583259
-0.000572788
-0.000564301
-0.000554362
-0.000539846
-0.000525375
-0.00051413
-0.000501961
-0.000487414
-0.000474782
-0.000464402
-0.000452982
-0.000440989
-0.000430948
-0.000421797
-0.000411868
-0.000402155
-0.000393646
-0.000385125
-0.00037609
-0.000367317
-0.000358923
-0.000350037
-0.000340738
-0.000331385
-0.00032178
-0.000311457
-0.000300651
-0.000289397
-0.000277505
-0.000264773
-0.000251398
-0.000237261
-0.000222293
-0.000206396
-0.000189691
-0.000172052
-0.000153508
-0.000133962
-0.000113514
-9.20984e-05
-6.97634e-05
-4.63828e-05
-2.21282e-05
3.0169e-06
2.90903e-05
5.61742e-05
8.39359e-05
0.000112482
0.000141985
0.000172272
0.000202879
0.000234277
0.0002666
0.000299112
0.000331594
0.000365122
0.000399138
0.000432297
0.000465521
0.000500083
0.000533662
0.000565354
0.000598019
0.000631195
0.000660751
0.000688587
0.000717813
0.000735314
0.000756154
0.000775551
0.000791132
0.000800742
0.000801751
0.000800818
0.000797392
0.000773456
0.000738576
0.000713605
0.000665291
0.00058872
0.000524652
0.000454618
0.000351517
0.000248451
0.000159268
5.60213e-05
-5.44347e-05
-0.000142652
-0.000229837
-0.000315343
-0.000373776
-0.000430974
-0.000488228
-0.000511981
-0.000531403
-0.00056201
-0.000570429
-0.000564278
-0.000567608
-0.000569525
-0.000559075
-0.00054532
-0.00053834
-0.000530224
-0.000515276
-0.000501218
-0.000492295
-0.000481415
-0.000467743
-0.00045639
-0.000447638
-0.000437157
-0.00042622
-0.000417095
-0.000408905
-0.000399523
-0.000390505
-0.000382347
-0.000374256
-0.000365326
-0.000356774
-0.000348238
-0.000339357
-0.000329746
-0.000320205
-0.000310086
-0.000299429
-0.000287977
-0.00027624
-0.000263567
-0.000250253
-0.000236007
-0.000221199
-0.000205269
-0.000188639
-0.000170952
-0.000152532
-0.000132929
-0.00011261
-9.11588e-05
-6.89046e-05
-4.55127e-05
-2.14439e-05
3.78702e-06
2.97839e-05
5.6754e-05
8.43356e-05
0.00011307
0.000142372
0.000172373
0.000202964
0.000234606
0.000266358
0.000298525
0.000331361
0.000364859
0.0003977
0.000430886
0.000464806
0.000498343
0.000530337
0.000563034
0.000595901
0.000626464
0.000655055
0.000684511
0.000711999
0.000729279
0.000753034
0.000770325
0.000780731
0.000790455
0.000796514
0.000792892
0.000776817
0.000757967
0.000736921
0.000691793
0.000631156
0.00058291
0.000511071
0.000412366
0.0003298
0.000238006
0.000125418
2.96165e-05
-6.6898e-05
-0.000168042
-0.00024234
-0.000317224
-0.000392526
-0.000433569
-0.000471314
-0.00051487
-0.000532702
-0.000540543
-0.000555119
-0.000560294
-0.000555074
-0.000548912
-0.000546102
-0.000538389
-0.000525132
-0.000514334
-0.00050674
-0.00049476
-0.0004815
-0.000471508
-0.000462591
-0.000450936
-0.000440283
-0.000431603
-0.000422911
-0.000412936
-0.000404377
-0.000396429
-0.000388182
-0.000379369
-0.000371557
-0.000363431
-0.000355008
-0.000346141
-0.000337668
-0.000328373
-0.000318788
-0.000308564
-0.000298232
-0.00028683
-0.000275067
-0.000262388
-0.000249286
-0.000234989
-0.000220209
-0.000204298
-0.000187806
-0.000170043
-0.000151694
-0.000132117
-0.000111895
-9.03645e-05
-6.8224e-05
-4.48713e-05
-2.08524e-05
4.44644e-06
3.02514e-05
5.71901e-05
8.47997e-05
0.000113522
0.000142509
0.000172585
0.000203278
0.000234653
0.000266008
0.000298545
0.000331372
0.000364095
0.000396757
0.000430763
0.000463987
0.000496174
0.000528908
0.000562518
0.000593087
0.00062244
0.000653284
0.000682401
0.000705813
0.000729708
0.000749295
0.000765761
0.000779715
0.000788133
0.000791242
0.000787386
0.000770932
0.000754267
0.000728847
0.000675098
0.00062155
0.000572227
0.000484219
0.000386806
0.000304254
0.000206198
8.75821e-05
-1.60956e-05
-0.000103994
-0.000204194
-0.000289251
-0.000350423
-0.000418533
-0.000464952
-0.000486419
-0.000522858
-0.000547835
-0.000543099
-0.000547806
-0.000557121
-0.000552503
-0.000539992
-0.00053328
-0.000528881
-0.000518086
-0.000503618
-0.000494747
-0.000486453
-0.000474564
-0.000462455
-0.000454139
-0.000445083
-0.000434753
-0.000425159
-0.000417631
-0.000409056
-0.000400369
-0.000392235
-0.000385033
-0.00037677
-0.000368782
-0.000360815
-0.000353083
-0.000344315
-0.000335784
-0.000326721
-0.000317498
-0.000307214
-0.000296938
-0.000285703
-0.000274101
-0.000261352
-0.000248356
-0.000234131
-0.000219432
-0.000203485
-0.000187089
-0.000169337
-0.000151066
-0.000131466
-0.000111304
-8.97801e-05
-6.77429e-05
-4.43331e-05
-2.03571e-05
4.8751e-06
3.05869e-05
5.7662e-05
8.51621e-05
0.00011372
0.00014274
0.000173008
0.000203358
0.00023456
0.000266241
0.000298801
0.000330898
0.000363797
0.000397101
0.000430421
0.000462712
0.000496041
0.000529144
0.000560763
0.000591243
0.000622926
0.000652327
0.000678663
0.00070445
0.00073115
0.000748238
0.000767713
0.000784473
0.000790237
0.000788913
0.000787664
0.000779565
0.000753922
0.000711085
0.000675881
0.000629804
0.000535986
0.000450673
0.000384594
0.000260321
0.000136501
4.6432e-05
-7.07276e-05
-0.000183858
-0.00026419
-0.000359682
-0.000424164
-0.000457971
-0.000514735
-0.000550048
-0.000544478
-0.00055769
-0.000573068
-0.000566201
-0.000552159
-0.000548049
-0.000545528
-0.000531411
-0.00051507
-0.00050898
-0.000500583
-0.000485774
-0.000473676
-0.000467017
-0.000456887
-0.000445196
-0.000436277
-0.000429358
-0.00041988
-0.000411024
-0.000403633
-0.000396678
-0.000388168
-0.000380757
-0.00037356
-0.00036627
-0.000357977
-0.00035049
-0.000342375
-0.00033405
-0.000324833
-0.000315939
-0.000305952
-0.000295717
-0.000284453
-0.000273111
-0.000260449
-0.000247473
-0.000233271
-0.000218743
-0.000202783
-0.000186428
-0.000168708
-0.000150537
-0.000130885
-0.000110795
-8.92957e-05
-6.72985e-05
-4.38325e-05
-1.99722e-05
5.26558e-06
3.10009e-05
5.80885e-05
8.54198e-05
0.000114077
0.000143169
0.000173314
0.000203492
0.000234996
0.000266689
0.000298883
0.00033101
0.000364499
0.000397454
0.000430186
0.000463154
0.000497195
0.000529091
0.000560399
0.000592743
0.00062445
0.000651546
0.000679073
0.000707706
0.000732834
0.000757287
0.000776162
0.00078591
0.000797
0.000802407
0.000794439
0.000782152
0.000759723
0.000718317
0.000677601
0.00061339
0.000519782
0.000439505
0.000338846
0.000204412
8.24949e-05
-3.22682e-05
-0.000154354
-0.000283191
-0.000368962
-0.000446137
-0.000522285
-0.000556945
-0.000579503
-0.000614092
-0.000608511
-0.000596381
-0.000600871
-0.000590694
-0.000571279
-0.00055581
-0.000543954
-0.000532664
-0.000515626
-0.000500886
-0.000490655
-0.000480166
-0.000466712
-0.000456264
-0.000447614
-0.00043861
-0.000428479
-0.000420724
-0.000413212
-0.000405539
-0.00039742
-0.000390919
-0.000383818
-0.000376739
-0.000369315
-0.000362773
-0.0003552
-0.000347751
-0.000339719
-0.000331986
-0.000323031
-0.000314156
-0.000304345
-0.000294459
-0.000283251
-0.000271971
-0.000259448
-0.000246648
-0.000232442
-0.000217991
-0.000202102
-0.000185845
-0.000168106
-0.000149994
-0.000130371
-0.000110357
-8.88105e-05
-6.68488e-05
-4.34193e-05
-1.96109e-05
5.736e-06
3.14126e-05
5.84235e-05
8.58025e-05
0.00011463
0.000143533
0.000173623
0.000204086
0.000235687
0.000266956
0.000299393
0.000332109
0.00036525
0.000397686
0.000431513
0.000465024
0.000497767
0.000529927
0.00056367
0.000595244
0.000624818
0.000654937
0.000685401
0.000709918
0.000742657
0.000768174
0.000784735
0.000796852
0.000812049
0.000817526
0.000808056
0.000791232
0.000771907
0.000740784
0.000674064
0.00058656
0.000531677
0.000426807
0.000251906
0.000151964
3.81799e-05
-0.000151437
-0.000279518
-0.000384922
-0.000509304
-0.000569783
-0.000629907
-0.000698815
-0.00068165
-0.000664887
-0.000693512
-0.000676583
-0.000633255
-0.000610241
-0.000601899
-0.000581355
-0.000546764
-0.000529289
-0.000520421
-0.000501129
-0.000480409
-0.000471113
-0.000461713
-0.000447912
-0.000436279
-0.00042992
-0.000421383
-0.000411993
-0.000404484
-0.000398947
-0.000391348
-0.000384313
-0.00037804
-0.000372273
-0.000364949
-0.000358439
-0.000351673
-0.000344879
-0.000336845
-0.000329361
-0.000320943
-0.00031234
-0.000302544
-0.000292923
-0.000281992
-0.000270815
-0.000258335
-0.000245732
-0.000231633
-0.00021723
-0.000201392
-0.00018525
-0.000167526
-0.00014946
-0.000129873
-0.000109901
-8.83329e-05
-6.64343e-05
-4.29995e-05
-1.91666e-05
6.19007e-06
3.17912e-05
5.88992e-05
8.63449e-05
0.000115118
0.000143996
0.000174342
0.000204833
0.000236295
0.000267759
0.000300637
0.000333184
0.000366231
0.000399366
0.000433669
0.00046666
0.000499816
0.000533442
0.000567222
0.000598062
0.000629506
0.000661645
0.000690909
0.000715546
0.000757202
0.000775969
0.000798727
0.000822616
0.000829314
0.000827667
0.000835111
0.000822323
0.000784313
0.000748593
0.000690581
0.000603067
0.000510409
0.000372441
0.000234772
9.59341e-05
-8.79828e-05
-0.000249765
-0.000403513
-0.000526811
-0.000663568
-0.000749195
-0.000767674
-0.000795705
-0.000821002
-0.000784417
-0.000759437
-0.000731985
-0.000693534
-0.000663109
-0.000622746
-0.000592948
-0.000569466
-0.000540186
-0.00051433
-0.000498453
-0.000481613
-0.000463734
-0.000449817
-0.000440364
-0.000429119
-0.00041879
-0.000410789
-0.000404329
-0.000396252
-0.000389672
-0.000383827
-0.00037823
-0.000371485
-0.000366026
-0.000360127
-0.000354143
-0.000347259
-0.00034111
-0.000333876
-0.000326548
-0.000318249
-0.000310172
-0.00030073
-0.000291176
-0.000280426
-0.000269563
-0.000257214
-0.00024467
-0.000230712
-0.00021647
-0.000200672
-0.000184576
-0.000166937
-0.00014895
-0.000129355
-0.000109406
-8.78908e-05
-6.60202e-05
-4.25211e-05
-1.87074e-05
6.60262e-06
3.22603e-05
5.94964e-05
8.68685e-05
0.000115636
0.000144753
0.000175226
0.000205525
0.000237214
0.000269189
0.000301972
0.000334298
0.000368232
0.000402006
0.000435644
0.000468995
0.000504228
0.000537835
0.000570331
0.000603736
0.0006383
0.000667966
0.000696934
0.000728894
0.000769604
0.000794685
0.000822022
0.000841732
0.000851421
0.000859975
0.000864056
0.000848381
0.000816548
0.000767738
0.000711406
0.000636847
0.000476591
0.000321691
0.000250782
1.46023e-05
-0.00022802
-0.000326034
-0.000533343
-0.000718559
-0.000800035
-0.000918773
-0.000960221
-0.000894035
-0.000928315
-0.000931402
-0.000831819
-0.000779246
-0.000754053
-0.000717119
-0.000654888
-0.000606466
-0.000584597
-0.000555117
-0.000516956
-0.000494263
-0.000479175
-0.000459687
-0.000440779
-0.000430193
-0.000420408
-0.000409278
-0.000399835
-0.00039425
-0.000387517
-0.000380727
-0.000374921
-0.000370636
-0.000364823
-0.000359418
-0.000354084
-0.000349149
-0.00034277
-0.000336809
-0.000330178
-0.000323481
-0.000315432
-0.000307585
-0.000298584
-0.000289342
-0.000278732
-0.000268069
-0.000255976
-0.000243568
-0.000229705
-0.000215596
-0.000199915
-0.000183882
-0.000166308
-0.000148377
-0.000128821
-0.000108913
-8.7416e-05
-6.5529e-05
-4.2046e-05
-1.82588e-05
7.12195e-06
3.28446e-05
6.00432e-05
8.74626e-05
0.000116441
0.000145602
0.000176028
0.000206603
0.000238641
0.00027053
0.000303439
0.000336492
0.000370744
0.000404298
0.000438727
0.000473347
0.000508505
0.000542209
0.000576943
0.000611726
0.000645513
0.000677027
0.000710252
0.000742144
0.000786269
0.000822105
0.000845717
0.000859674
0.000887632
0.000906168
0.000888506
0.000875801
0.00087551
0.000814457
0.000720727
0.000644741
0.000514816
0.00034214
0.000137005
-7.0318e-05
-0.000187027
-0.000434837
-0.000693086
-0.00088935
-0.000953194
-0.00102746
-0.00111693
-0.00111144
-0.00100742
-0.000963396
-0.000916891
-0.000883988
-0.000807461
-0.000724383
-0.000691846
-0.000649508
-0.000589903
-0.000553588
-0.000530318
-0.000499404
-0.000469557
-0.000452766
-0.000437968
-0.00042086
-0.000407511
-0.00040007
-0.000391189
-0.000382523
-0.000376515
-0.000372336
-0.000366267
-0.000361268
-0.000357103
-0.000353053
-0.000347539
-0.00034295
-0.00033787
-0.000332475
-0.000325903
-0.000319771
-0.000312471
-0.000304843
-0.000296029
-0.000287225
-0.000276977
-0.000266413
-0.000254514
-0.000242362
-0.000228658
-0.000214603
-0.000199066
-0.000183155
-0.000165639
-0.000147732
-0.000128267
-0.000108395
-8.68897e-05
-6.50057e-05
-4.1575e-05
-1.77408e-05
7.71064e-06
3.34257e-05
6.06289e-05
8.82302e-05
0.000117316
0.000146438
0.00017704
0.000208005
0.000240085
0.000271966
0.000305504
0.000339132
0.000373183
0.000407132
0.000443062
0.000478094
0.00051276
0.000548297
0.000585629
0.00061968
0.000653514
0.000690324
0.000726023
0.000754411
0.000810415
0.000841937
0.000871027
0.000900173
0.000924051
0.000933993
0.000940498
0.000939755
0.000909438
0.000859034
0.000788387
0.000663933
0.00055334
0.00039946
3.99689e-05
-0.000110044
-0.000152129
-0.000503749
-0.000693118
-0.000934921
-0.0012054
-0.00124635
-0.00115661
-0.00121133
-0.00109863
-0.00101838
-0.00101478
-0.000934426
-0.000844555
-0.000763427
-0.000712413
-0.000665854
-0.000607766
-0.000563456
-0.000531708
-0.000499568
-0.000469019
-0.00044723
-0.000429523
-0.000412929
-0.000398439
-0.000388744
-0.000380421
-0.00037274
-0.000365974
-0.000361695
-0.000357183
-0.000352839
-0.000348575
-0.000345347
-0.000341088
-0.000336851
-0.000332103
-0.000327565
-0.000321721
-0.00031582
-0.000308961
-0.000301907
-0.000293465
-0.000284846
-0.000274957
-0.000264697
-0.000252993
-0.000240978
-0.0002275
-0.000213583
-0.00019816
-0.000182322
-0.000164924
-0.000147075
-0.000127666
-0.000107796
-8.63516e-05
-6.44831e-05
-4.10261e-05
-1.71366e-05
8.26382e-06
3.40397e-05
6.13946e-05
8.90513e-05
0.0001181
0.000147491
0.000178369
0.000209295
0.00024152
0.000274079
0.000307856
0.000341354
0.000376215
0.000411317
0.000447089
0.00048239
0.000519298
0.000555976
0.000592545
0.000628819
0.000666775
0.00070323
0.0007387
0.000774246
0.000834127
0.000863899
0.000903522
0.000943412
0.000959083
0.000972888
0.00100976
0.00100508
0.000945487
0.000925858
0.000891972
0.00072252
0.000557885
0.000448216
0.000223368
-9.77998e-05
-0.000452203
-0.000406537
-0.000548987
-0.000884066
-0.000917483
-0.00118957
-0.00126478
-0.001072
-0.00116364
-0.00118322
-0.00110119
-0.000915131
-0.000857377
-0.000831876
-0.000730448
-0.000655792
-0.000626235
-0.000582746
-0.000528057
-0.000494966
-0.000472768
-0.000444097
-0.000418379
-0.000404741
-0.00039229
-0.000377912
-0.000367982
-0.000363234
-0.000356874
-0.000350672
-0.000347016
-0.000344669
-0.000340488
-0.000336992
-0.000334041
-0.000330892
-0.000326278
-0.000322111
-0.000317268
-0.000311884
-0.000305241
-0.000298636
-0.000290792
-0.000282407
-0.000272748
-0.000262812
-0.000251421
-0.000239515
-0.000226228
-0.00021249
-0.000197216
-0.000181425
-0.00016416
-0.000146379
-0.000127026
-0.000107166
-8.57985e-05
-6.39093e-05
-4.04446e-05
-1.6542e-05
8.84944e-06
3.47476e-05
6.21561e-05
8.98487e-05
0.000119019
0.000148667
0.000179614
0.000210658
0.000243284
0.000276244
0.000310069
0.000343991
0.000379764
0.000415321
0.000451182
0.000487756
0.000526328
0.000563231
0.00060036
0.000639863
0.000680174
0.00071603
0.000754167
0.000796753
0.000855282
0.000899003
0.000937775
0.000970946
0.00100936
0.00104231
0.0010516
0.00105354
0.00106503
0.00102057
0.000910001
0.000835526
0.000709793
0.000476092
0.000446007
-1.3034e-06
-0.000741907
-0.000222391
-0.000207227
-0.000743819
-0.000293918
-0.000689568
-0.000863736
-0.000655305
-0.00116407
-0.00127159
-0.00104863
-0.000979269
-0.000893232
-0.000812689
-0.000743552
-0.000686248
-0.000630681
-0.000577061
-0.000535149
-0.000499907
-0.000465948
-0.000438187
-0.000415825
-0.000396537
-0.000381008
-0.000369705
-0.000359554
-0.000351672
-0.000346262
-0.000342179
-0.000337798
-0.000334879
-0.000332441
-0.000329933
-0.00032674
-0.000324139
-0.000320813
-0.000317048
-0.000312387
-0.000307686
-0.000301765
-0.000295355
-0.000287835
-0.000279925
-0.000270629
-0.000260822
-0.000249715
-0.000238062
-0.000224961
-0.000211305
-0.00019622
-0.000180542
-0.000163374
-0.000145618
-0.000126376
-0.000106552
-8.52048e-05
-6.32822e-05
-3.98921e-05
-1.59526e-05
9.52362e-06
3.54767e-05
6.28311e-05
9.07223e-05
0.000120096
0.000149739
0.00018076
0.000212338
0.000245171
0.000278031
0.000312444
0.000347342
0.000382995
0.000418695
0.000456387
0.000494015
0.000531806
0.000570429
0.000611259
0.000650567
0.000690194
0.000732172
0.000774872
0.000813956
0.000879549
0.000930357
0.000971776
0.0010077
0.00105936
0.00110267
0.00111006
0.0011301
0.00116862
0.00110905
0.00100023
0.000982276
0.000876914
0.000596286
0.000357995
-9.12415e-06
-0.000371147
-0.000224366
-0.000118746
-0.000270997
-0.000302978
-0.000411451
-0.000296111
-0.00033825
-0.000770228
-0.000989536
-0.00099159
-0.00105213
-0.000922429
-0.000786411
-0.000755771
-0.000705851
-0.000625713
-0.000575356
-0.00054443
-0.000501085
-0.000458249
-0.000433598
-0.000413751
-0.000389588
-0.000370721
-0.000361231
-0.000352042
-0.00034201
-0.000335952
-0.000333426
-0.000329665
-0.000326114
-0.000324222
-0.000322919
-0.000320183
-0.000317674
-0.000315148
-0.000312151
-0.000307848
-0.000303468
-0.000298192
-0.000292208
-0.000284974
-0.000277367
-0.000268487
-0.000258896
-0.000248008
-0.00023656
-0.000223695
-0.00021014
-0.000195211
-0.000179635
-0.000162587
-0.000144868
-0.000125724
-0.000105914
-8.46147e-05
-6.26911e-05
-3.93307e-05
-1.53227e-05
1.01482e-05
3.61477e-05
6.35778e-05
9.16165e-05
0.000121016
0.000150814
0.000182082
0.000213871
0.000246804
0.000280084
0.000314978
0.000350139
0.000386152
0.000422789
0.000461228
0.000499274
0.000538092
0.000578495
0.00062048
0.00066068
0.000702591
0.000747931
0.000792689
0.000833321
0.000906333
0.00095065
0.00100485
0.00106026
0.0011013
0.00114362
0.00120041
0.00122641
0.00120785
0.00122841
0.00125339
0.00107385
0.000868062
0.000646618
0.000169139
-8.3075e-05
-0.000195036
-0.000333868
-0.000369939
-0.000195835
-0.000300013
-0.000239488
-0.00019322
-0.000235681
-0.000381194
-0.000589781
-0.000873647
-0.000939276
-0.000876716
-0.000841738
-0.000765519
-0.000680583
-0.000631673
-0.000590385
-0.000536155
-0.000493463
-0.000464045
-0.000431688
-0.000401897
-0.000383696
-0.000368255
-0.000351962
-0.000341058
-0.000335406
-0.000329071
-0.000323553
-0.000321087
-0.000319693
-0.000317099
-0.0003153
-0.00031412
-0.000312446
-0.000309677
-0.000307104
-0.000303833
-0.000299749
-0.000294594
-0.000289121
-0.000282436
-0.000274961
-0.000266318
-0.000257071
-0.000246456
-0.000235088
-0.000222431
-0.000209055
-0.000194263
-0.000178727
-0.000161821
-0.000144176
-0.00012509
-0.000105272
-8.40659e-05
-6.21431e-05
-3.87582e-05
-1.47101e-05
1.06932e-05
3.68026e-05
6.43576e-05
9.24142e-05
0.000121814
0.000151956
0.000183396
0.00021512
0.000248362
0.000282349
0.000317226
0.000352386
0.000389574
0.000427121
0.000464981
0.000503959
0.000545517
0.000586063
0.000627066
0.000671404
0.000717463
0.00076019
0.000806237
0.000857865
0.00092779
0.000977857
0.00103585
0.00109865
0.00114959
0.00119575
0.00126382
0.00131615
0.00131667
0.00133812
0.00137243
0.00130834
0.00103536
0.000357131
-0.000169985
-0.00019952
-0.000278502
-0.000317384
-0.000270818
-0.000224416
-0.000290615
-0.000217463
-0.0001905
-0.000207977
-0.000224586
-0.000244628
-0.000498208
-0.000825807
-0.000917728
-0.000839274
-0.000726764
-0.000678804
-0.000647758
-0.000588172
-0.000528712
-0.00049329
-0.000463403
-0.000427563
-0.000397076
-0.00037803
-0.000362068
-0.000345887
-0.000334072
-0.000327612
-0.000322015
-0.000316857
-0.000313895
-0.000312712
-0.000311045
-0.000309487
-0.000308374
-0.000307288
-0.000305193
-0.000302829
-0.00029989
-0.000296322
-0.000291582
-0.000286306
-0.000279967
-0.000272818
-0.000264428
-0.000255341
-0.00024498
-0.000233785
-0.000221289
-0.000208014
-0.000193379
-0.000177921
-0.000161116
-0.000143507
-0.000124507
-0.000104715
-8.35519e-05
-6.16017e-05
-3.82643e-05
-1.41958e-05
1.12488e-05
3.74318e-05
6.49569e-05
9.31359e-05
0.000122694
0.000152908
0.000184385
0.000216467
0.000249954
0.000283973
0.000319189
0.000355084
0.000392441
0.000430157
0.000469149
0.000509145
0.000550657
0.000592305
0.000635683
0.000680857
0.000727384
0.000773536
0.000822833
0.000875594
0.000944446
0.00100942
0.00106446
0.00111896
0.00119454
0.00126558
0.00131184
0.00136959
0.00145011
0.00146506
0.00143133
0.00155181
0.00117789
0.000140323
-0.000325612
-0.000287108
-0.000241497
-0.000212135
-0.000250145
-0.000303272
-0.000207897
-0.000197556
-0.000250315
-0.000207887
-0.000110875
-0.000103349
-0.000285969
-0.000690119
-0.000859115
-0.000780103
-0.000744354
-0.000701834
-0.000624937
-0.000570735
-0.000542712
-0.000498841
-0.000448975
-0.000421425
-0.000401375
-0.000373461
-0.000351465
-0.000341564
-0.000331638
-0.000320102
-0.00031423
-0.000312405
-0.000308983
-0.000305995
-0.000305521
-0.000305338
-0.000303715
-0.000302464
-0.00030143
-0.000299536
-0.000296464
-0.000293226
-0.000289121
-0.000284002
-0.000277764
-0.000270943
-0.000262877
-0.000253862
-0.000243661
-0.00023267
-0.000220333
-0.0002071
-0.000192598
-0.00017724
-0.000160511
-0.000142914
-0.000124004
-0.000104245
-8.30963e-05
-6.11277e-05
-3.78552e-05
-1.37494e-05
1.17503e-05
3.79554e-05
6.54463e-05
9.37939e-05
0.000123465
0.000153655
0.000185235
0.00021772
0.000251264
0.000285231
0.000321004
0.000357532
0.000394619
0.000432647
0.000473183
0.00051356
0.000554317
0.000597969
0.000644157
0.000688063
0.000734428
0.000787075
0.000839055
0.000886874
0.000961371
0.00102253
0.0010876
0.00115284
0.00122434
0.00130328
0.00137086
0.00143227
0.00152536
0.00158542
0.00158438
0.00164606
0.000735961
-0.000172056
-0.000197613
-0.000254019
-0.000254068
-0.000244544
-0.000249881
-0.000245702
-0.000205555
-0.000221921
-0.000192138
-0.000162611
-0.000135096
-0.000134418
-0.000138424
-0.000455207
-0.000795571
-0.000771867
-0.000748482
-0.000681487
-0.00062085
-0.000580225
-0.000536091
-0.000490088
-0.000452604
-0.000421136
-0.00039299
-0.000369851
-0.000351169
-0.000336192
-0.000325053
-0.000316995
-0.000310748
-0.000306615
-0.00030421
-0.000302676
-0.000301446
-0.000300868
-0.000300314
-0.00029949
-0.00029815
-0.000296542
-0.000294116
-0.00029098
-0.000286909
-0.000282132
-0.000276212
-0.00026944
-0.000261521
-0.000252728
-0.00024268
-0.000231734
-0.000219531
-0.000206411
-0.00019199
-0.000176659
-0.000160019
-0.000142473
-0.000123601
-0.000103833
-8.27465e-05
-6.07902e-05
-3.74964e-05
-1.33569e-05
1.20807e-05
3.83446e-05
6.59415e-05
9.4293e-05
0.000123919
0.000154351
0.000186081
0.000218453
0.000252155
0.000286679
0.000322412
0.000358774
0.000396713
0.000435464
0.000475355
0.000516244
0.00055914
0.00060271
0.000647788
0.000694851
0.000744158
0.000794267
0.000847385
0.000903274
0.000973429
0.00102964
0.00110331
0.00118264
0.00124585
0.00131617
0.00141677
0.00151099
0.00157035
0.0016342
0.00176064
0.00150149
0.000362241
-0.000268144
-0.000163323
-0.0002233
-0.000269745
-0.000260363
-0.000216082
-0.000199237
-0.00024193
-0.000228464
-0.000152059
-0.000147991
-0.000161973
-0.000110421
-6.52594e-05
-0.000292362
-0.000694117
-0.000794159
-0.000712215
-0.000656484
-0.000636785
-0.000588751
-0.000521253
-0.00048305
-0.000459684
-0.00042101
-0.000384656
-0.000367103
-0.000352279
-0.000332646
-0.000319724
-0.00031481
-0.000308924
-0.000302676
-0.000300605
-0.000300476
-0.000298906
-0.000297745
-0.000297851
-0.000297538
-0.000295984
-0.000294419
-0.000292466
-0.000289492
-0.000285398
-0.000280804
-0.000275144
-0.000268427
-0.000260575
-0.000251929
-0.000242009
-0.000231092
-0.000218967
-0.000205931
-0.000191572
-0.000176256
-0.000159676
-0.000142166
-0.000123319
-0.00010355
-8.25052e-05
-6.05498e-05
-3.7246e-05
-1.30945e-05
1.23135e-05
3.86285e-05
6.62726e-05
9.46237e-05
0.000124258
0.000154842
0.000186624
0.000218966
0.000252828
0.000287641
0.00032332
0.000359716
0.000398212
0.000437268
0.000476847
0.000518297
0.000562411
0.000605754
0.000650444
0.000699807
0.000750729
0.000798927
0.000853246
0.00091543
0.00097704
0.00104589
0.00111048
0.00117921
0.00126409
0.0013493
0.00142675
0.00151425
0.00160788
0.00173181
0.00187073
0.00136746
0.000389016
-0.000245418
-0.000280054
-0.000233911
-0.000212036
-0.000229379
-0.000244436
-0.000235505
-0.000204282
-0.000177857
-0.000193927
-0.00016388
-0.00012386
-9.33851e-05
-5.4618e-05
-0.000258734
-0.000583223
-0.000750357
-0.000721741
-0.00068306
-0.000619308
-0.000567953
-0.000535656
-0.00049245
-0.000445665
-0.000415898
-0.000393116
-0.000366109
-0.000344475
-0.00033259
-0.000322026
-0.000311366
-0.000305379
-0.000302872
-0.000299931
-0.000297667
-0.000297325
-0.000297343
-0.000296491
-0.000295815
-0.000295149
-0.000293746
-0.000291346
-0.000288543
-0.000284859
-0.000280188
-0.000274428
-0.000267912
-0.0002602
-0.000251488
-0.000241599
-0.000230799
-0.000218713
-0.000205649
-0.000191339
-0.000176079
-0.000159507
-0.00014198
-0.000123175
-0.000103435
-8.23699e-05
-6.03934e-05
-3.7147e-05
-1.29924e-05
1.24891e-05
3.87919e-05
6.63486e-05
9.48121e-05
0.000124561
0.000154996
0.000186754
0.00021945
0.000253279
0.000287735
0.000323823
0.000360783
0.000398613
0.000437476
0.000478531
0.000519968
0.000562343
0.000607234
0.000654521
0.000701101
0.000750503
0.000804983
0.000860069
0.000914233
0.00097704
0.00104589
0.00111048
0.00117921
0.00126409
0.0013493
0.00142675
0.00151425
0.00160788
0.00173181
0.00187073
0.00136746
0.000389016
-0.000245418
-0.000280054
-0.000233911
-0.000212036
-0.000229379
-0.000244436
-0.000235505
-0.000204282
-0.000177857
-0.000193927
-0.00016388
-0.00012386
-9.33851e-05
-5.4618e-05
-0.000258734
-0.000583223
-0.000750357
-0.000721741
-0.00068306
-0.000619308
-0.000567953
-0.000535656
-0.00049245
-0.000445665
-0.000415898
-0.000393116
-0.000366109
-0.000344475
-0.00033259
-0.000322026
-0.000311366
-0.000305379
-0.000302872
-0.000299931
-0.000297667
-0.000297325
-0.000297343
-0.000296491
-0.000295815
-0.000295149
-0.000293746
-0.000291346
-0.000288543
-0.000284859
-0.000280188
-0.000274428
-0.000267912
-0.0002602
-0.000251488
-0.000241599
-0.000230799
-0.000218713
-0.000205649
-0.000191339
-0.000176079
-0.000159507
-0.00014198
-0.000123175
-0.000103435
-8.23699e-05
-6.03934e-05
-3.7147e-05
-1.29924e-05
1.24891e-05
3.87919e-05
6.63486e-05
9.48121e-05
0.000124561
0.000154996
0.000186754
0.00021945
0.000253279
0.000287735
0.000323823
0.000360783
0.000398613
0.000437476
0.000478531
0.000519968
0.000562343
0.000607234
0.000654521
0.000701101
0.000750503
0.000804983
0.000860069
0.000914233
0.000973429
0.00102964
0.00110331
0.00118264
0.00124585
0.00131617
0.00141677
0.00151099
0.00157035
0.0016342
0.00176064
0.00150149
0.000362241
-0.000268144
-0.000163323
-0.0002233
-0.000269745
-0.000260363
-0.000216082
-0.000199237
-0.00024193
-0.000228464
-0.000152059
-0.000147991
-0.000161973
-0.000110421
-6.52594e-05
-0.000292362
-0.000694117
-0.000794159
-0.000712215
-0.000656484
-0.000636785
-0.000588751
-0.000521253
-0.00048305
-0.000459684
-0.00042101
-0.000384656
-0.000367103
-0.000352279
-0.000332646
-0.000319724
-0.00031481
-0.000308924
-0.000302676
-0.000300605
-0.000300476
-0.000298906
-0.000297745
-0.000297851
-0.000297538
-0.000295984
-0.000294419
-0.000292466
-0.000289492
-0.000285398
-0.000280804
-0.000275144
-0.000268427
-0.000260575
-0.000251929