# vtk DataFile Version 3.0
fluid_state
ASCII
DATASET RECTILINEAR_GRID
DIMENSIONS 100 40 1
X_COORDINATES 100 float
0.5 1.5 2.5 3.5 4.5 5.5 6.5 7.5 8.5 9.5 10.5 11.5 12.5 13.5 14.5 15.5 16.5 17.5 18.5 19.5 20.5 21.5 22.5 23.5 24.5 25.5 26.5 27.5 28.5 29.5 30.5 31.5 32.5 33.5 34.5 35.5 36.5 37.5 38.5 39.5 40.5 41.5 42.5 43.5 44.5 45.5 46.5 47.5 48.5 49.5 50.5 51.5 52.5 53.5 54.5 55.5 56.5 57.5 58.5 59.5 60.5 61.5 62.5 63.5 64.5 65.5 66.5 67.5 68.5 69.5 70.5 71.5 72.5 73.5 74.5 75.5 76.5 77.5 78.5 79.5 80.5 81.5 82.5 83.5 84.5 85.5 86.5 87.5 88.5 89.5 90.5 91.5 92.5 93.5 94.5 95.5 96.5 97.5 98.5 99.5 
Y_COORDINATES 40 float
0.5 1.5 2.5 3.5 4.5 5.5 6.5 7.5 8.5 9.5 10.5 11.5 12.5 13.5 14.5 15.5 16.5 17.5 18.5 19.5 20.5 21.5 22.5 23.5 24.5 25.5 26.5 27.5 28.5 29.5 30.5 31.5 32.5 33.5 34.5 35.5 36.5 37.5 38.5 39.5 
Z_COORDINATES 1 float
0
POINT_DATA 4000
SCALARS density_difference float 1
LOOKUP_TABLE default
0.000761385
0.000769458
0.000775985
0.00078031
0.000779388
0.000770741
0.000754221
0.000735756
0.000707803
0.000658768
0.000607141
0.000551223
0.000465758
0.000372194
0.000279293
0.000162617
4.04096e-05
-7.81894e-05
-0.000208842
-0.000330207
-0.000438247
-0.000553328
-0.000646065
-0.000715643
-0.000788578
-0.000840561
-0.000868225
-0.000897529
-0.00091295
-0.000909845
-0.000906723
-0.000899282
-0.000880753
-0.000857658
-0.000835805
-0.000812328
-0.00078274
-0.000752092
-0.0007249
-0.00069626
-0.000664108
-0.000633693
-0.000605685
-0.000576128
-0.000545596
-0.000517174
-0.000489736
-0.000461361
-0.000433296
-0.000406741
-0.000380404
-0.000353752
-0.000327761
-0.0003026
-0.000277389
-0.000252242
-0.000227645
-0.000203401
-0.000179082
-0.000154954
-0.000131133
-0.000107417
-8.36587e-05
-6.00631e-05
-3.65707e-05
-1.30932e-05
1.04146e-05
3.3846e-05
5.72809e-05
8.07166e-05
0.000104212
0.000127696
0.000151197
0.000174709
0.000198334
0.000221938
0.000245514
0.000269161
0.000292947
0.000316579
0.000340164
0.000363956
0.000387761
0.000411162
0.000434676
0.000458506
0.00048188
0.000504667
0.000528025
0.000551406
0.000573439
0.000595221
0.000618063
0.000639564
0.000658915
0.00067919
0.000699766
0.000716499
0.000731574
0.000748002
0.000752234
0.000760238
0.000766135
0.000768494
0.000765253
0.000752094
0.000736715
0.000720114
0.000680893
0.000629227
0.000589244
0.000524446
0.000428423
0.000346077
0.000258345
0.000135232
1.16029e-05
-9.50147e-05
-0.000215513
-0.000343901
-0.000445889
-0.000544523
-0.000641002
-0.000705712
-0.000767068
-0.000827431
-0.000849933
-0.000865976
-0.000892694
-0.000894621
-0.000879735
-0.000873005
-0.000864582
-0.000842329
-0.000814587
-0.000793503
-0.000771397
-0.000740638
-0.00070986
-0.000684598
-0.000656965
-0.000625414
-0.000596111
-0.000569587
-0.000540992
-0.000511534
-0.000484137
-0.000457791
-0.000430244
-0.000403124
-0.000377284
-0.000351744
-0.000325692
-0.000300377
-0.000275654
-0.000251003
-0.000226216
-0.000202056
-0.000178046
-0.000154091
-0.000130128
-0.000106578
-8.29492e-05
-5.94101e-05
-3.58543e-05
-1.25293e-05
1.09673e-05
3.43455e-05
5.77955e-05
8.11325e-05
0.00010466
0.000128044
0.000151563
0.000175032
0.000198654
0.000222107
0.000245767
0.000269383
0.000293042
0.000316539
0.000340328
0.000363957
0.000387465
0.000410915
0.000434691
0.000457967
0.000481004
0.000504236
0.000527549
0.000549754
0.000571875
0.000594425
0.000616152
0.000636108
0.00065657
0.000676982
0.000694824
0.000710766
0.000727404
0.000741834
0.00074629
0.000756975
0.000761045
0.00075834
0.000754312
0.000746614
0.000729489
0.000698443
0.000663885
0.000628442
0.000566463
0.000487134
0.000422215
0.000331812
0.000212015
0.000110859
-4.98431e-08
-0.000132818
-0.000245585
-0.000358089
-0.000474891
-0.000559545
-0.000643613
-0.000726973
-0.000770888
-0.000809461
-0.000853087
-0.000867464
-0.000869778
-0.00087743
-0.000874661
-0.000859505
-0.000841567
-0.000826954
-0.000806677
-0.000778648
-0.000752857
-0.000730371
-0.000702316
-0.000671934
-0.000645089
-0.000619017
-0.000589525
-0.000560736
-0.000534167
-0.000507323
-0.000479075
-0.000452291
-0.000426416
-0.000400228
-0.000373754
-0.000348539
-0.000323467
-0.000298349
-0.000273346
-0.000249166
-0.00022481
-0.000200636
-0.00017658
-0.000152995
-0.000129155
-0.000105589
-8.2005e-05
-5.86988e-05
-3.51364e-05
-1.1837e-05
1.16034e-05
3.48435e-05
5.83428e-05
8.16225e-05
0.000105098
0.000128402
0.000151987
0.000175363
0.00019893
0.000222362
0.000246087
0.000269532
0.000293156
0.000316721
0.000340497
0.000363833
0.000387428
0.000411027
0.000434527
0.000457437
0.000480879
0.000504137
0.000526656
0.000548742
0.000571723
0.000593575
0.000613947
0.000634737
0.000656104
0.000674192
0.00069088
0.000709105
0.000725318
0.000735782
0.00074713
0.000753464
0.000757046
0.000757881
0.0007522
0.000742014
0.000724484
0.000692369
0.00066074
0.000620581
0.000548523
0.000476914
0.00041041
0.000302283
0.000183349
8.09535e-05
-3.6342e-05
-0.00017599
-0.000299089
-0.000401421
-0.000516657
-0.000614303
-0.000682755
-0.000757287
-0.000807216
-0.000827682
-0.000863086
-0.000884516
-0.000873175
-0.000870038
-0.000870688
-0.000856458
-0.000832119
-0.000812133
-0.000795279
-0.000770694
-0.000740579
-0.000716046
-0.000692342
-0.000663713
-0.000634242
-0.000608679
-0.000582281
-0.000553874
-0.000526209
-0.000500676
-0.000474098
-0.000447183
-0.000421141
-0.00039616
-0.000370379
-0.000345004
-0.00032018
-0.00029587
-0.000271049
-0.000246846
-0.000222813
-0.000199072
-0.000175013
-0.00015152
-0.000127917
-0.000104548
-8.09393e-05
-5.77615e-05
-3.43191e-05
-1.11158e-05
1.23283e-05
3.54642e-05
5.89229e-05
8.21219e-05
0.000105599
0.000128848
0.000152407
0.000175687
0.0001993
0.000222706
0.000246346
0.000269716
0.000293479
0.000316952
0.000340547
0.000363952
0.000387751
0.000411014
0.000434338
0.00045764
0.000481103
0.000503622
0.000526361
0.000549169
0.000571412
0.000592348
0.000613981
0.000635165
0.000654432
0.000672569
0.000691728
0.000708368
0.000721778
0.000734929
0.000749307
0.000753501
0.00075988
0.000763414
0.000755908
0.00074092
0.000724829
0.00070271
0.000662198
0.000601206
0.000549053
0.00048666
0.000370337
0.000263669
0.00017895
3.06317e-05
-0.000116688
-0.000225302
-0.00036311
-0.000494555
-0.000587408
-0.000695768
-0.000768419
-0.000804692
-0.000864858
-0.000899746
-0.000889276
-0.000897096
-0.000906191
-0.000891186
-0.000866341
-0.00085078
-0.000837844
-0.000810583
-0.000779484
-0.00075952
-0.000736831
-0.000705698
-0.000677163
-0.000654301
-0.000627331
-0.00059788
-0.000571422
-0.000546861
-0.000519455
-0.000492383
-0.000467097
-0.000442174
-0.000415803
-0.000390593
-0.000366042
-0.000341509
-0.000316404
-0.000292395
-0.000268366
-0.000244448
-0.000220316
-0.00019697
-0.000173306
-0.0001499
-0.000126322
-0.000103266
-7.98075e-05
-5.66753e-05
-3.33026e-05
-1.02994e-05
1.31154e-05
3.61993e-05
5.95893e-05
8.26782e-05
0.00010618
0.000129356
0.000152863
0.000176108
0.000199761
0.000223056
0.000246685
0.000270097
0.00029386
0.000317175
0.000340868
0.000364374
0.000388036
0.000411153
0.000434797
0.000458137
0.000481223
0.000503829
0.000527188
0.000549659
0.000571333
0.000593043
0.000615399
0.00063539
0.000654439
0.000674542
0.000693689
0.000708136
0.000722901
0.000738855
0.000752197
0.000764321
0.000769964
0.000766374
0.00076472
0.000756429
0.000733478
0.000707317
0.000668956
0.000609486
0.000551833
0.000467956
0.000351235
0.000249338
0.000125208
-3.43654e-05
-0.000181853
-0.000318886
-0.000460909
-0.000610874
-0.000710614
-0.000796927
-0.000882007
-0.000918768
-0.000940221
-0.000973431
-0.000961717
-0.000941802
-0.000938021
-0.000918106
-0.000888407
-0.000859797
-0.000835212
-0.000811724
-0.000780266
-0.000749841
-0.000724865
-0.000698873
-0.000668747
-0.000641302
-0.000615942
-0.000589533
-0.000561665
-0.000536073
-0.000510859
-0.000485117
-0.000459052
-0.000434636
-0.000409867
-0.000385076
-0.000360346
-0.00033668
-0.000312437
-0.000288539
-0.000264678
-0.000241462
-0.000217694
-0.00019443
-0.000171025
-0.000148047
-0.000124598
-0.000101652
-7.8399e-05
-5.54938e-05
-3.2168e-05
-9.27446e-06
1.40232e-05
3.69813e-05
6.03543e-05
8.3369e-05
0.000106809
0.000129898
0.000153429
0.000176638
0.000200229
0.000223474
0.000247205
0.000270565
0.000294231
0.000317614
0.000341484
0.000364808
0.000388407
0.000411858
0.000435609
0.000458527
0.000481886
0.000505164
0.000528163
0.000550135
0.00057301
0.000595351
0.000616354
0.00063672
0.000658414
0.000677752
0.00069471
0.000712522
0.000730439
0.000742091
0.000764142
0.000777151
0.000780883
0.000780368
0.000782227
0.000774128
0.000751026
0.000718681
0.00068215
0.000635759
0.000548941
0.000436571
0.000362176
0.000233037
2.49299e-05
-9.94765e-05
-0.000237935
-0.000458372
-0.000609238
-0.000731776
-0.000874221
-0.00094238
-0.00100736
-0.00108025
-0.00105738
-0.00103339
-0.0010569
-0.00103104
-0.00097628
-0.000939791
-0.000920976
-0.000889075
-0.000838948
-0.000806754
-0.000784979
-0.000750304
-0.00071294
-0.000687674
-0.000662381
-0.000631277
-0.000602204
-0.00057855
-0.000552562
-0.0005251
-0.000499754
-0.000476367
-0.000450944
-0.000425934
-0.000402089
-0.000378805
-0.000354264
-0.00033068
-0.000307393
-0.000284296
-0.000260516
-0.000237638
-0.000214536
-0.000191647
-0.000168333
-0.000145704
-0.000122627
-9.98529e-05
-7.67047e-05
-5.40604e-05
-3.09033e-05
-8.10243e-06
1.5098e-05
3.79001e-05
6.12198e-05
8.4163e-05
0.000107534
0.000130562
0.000154093
0.000177226
0.000200804
0.000224073
0.0002478
0.000271084
0.000294846
0.000318311
0.000342115
0.000365434
0.00038931
0.00041281
0.000436422
0.000459593
0.00048343
0.00050656
0.000529504
0.000552288
0.000575673
0.000597531
0.000619086
0.00064107
0.000662802
0.000681549
0.000700669
0.000720593
0.000737312
0.000749534
0.000781516
0.000787564
0.000798135
0.000810252
0.000803234
0.000788013
0.000782472
0.000753988
0.000698574
0.000645776
0.00056571
0.000454693
0.000337034
0.000167961
-8.3655e-08
-0.000170582
-0.000386699
-0.000577298
-0.000760077
-0.000900973
-0.00105436
-0.00114971
-0.00116666
-0.00119281
-0.00121473
-0.00116697
-0.00113171
-0.00109168
-0.00104218
-0.000999345
-0.000943203
-0.000900403
-0.000864239
-0.000818888
-0.000777402
-0.000746593
-0.000713881
-0.000678908
-0.000648219
-0.000621791
-0.000593163
-0.000564981
-0.000539375
-0.000515061
-0.000489104
-0.00046452
-0.000440969
-0.000417566
-0.000393272
-0.000370353
-0.000347415
-0.000324498
-0.000301171
-0.000278845
-0.000256023
-0.000233418
-0.00021053
-0.000188289
-0.000165446
-0.000142975
-0.000120162
-9.77965e-05
-7.48589e-05
-5.2338e-05
-2.93855e-05
-6.80844e-06
1.63009e-05
3.90144e-05
6.22073e-05
8.50334e-05
0.000108383
0.000131365
0.000154816
0.000177903
0.000201533
0.000224777
0.000248441
0.000271785
0.00029568
0.000319075
0.000342872
0.000366461
0.000390484
0.000413803
0.000437669
0.000461422
0.000485188
0.000508129
0.000532053
0.000555586
0.000578322
0.00060064
0.000624479
0.00064656
0.000667024
0.000688623
0.000711205
0.000728671
0.000745226
0.000765444
0.000796999
0.000810498
0.000825954
0.000833371
0.000830623
0.000826736
0.000816127
0.000785481
0.000737913
0.000667408
0.000588378
0.000492875
0.000296745
0.000105337
9.4567e-06
-0.000269495
-0.000555014
-0.000677894
-0.000916502
-0.00112688
-0.00121764
-0.0013456
-0.00138672
-0.00130586
-0.0013343
-0.0013279
-0.00121261
-0.00114417
-0.00110467
-0.00105736
-0.000979803
-0.000913676
-0.000878949
-0.000835479
-0.00078038
-0.000741083
-0.000710439
-0.000674036
-0.000637518
-0.000609463
-0.000582377
-0.000553214
-0.000525801
-0.00050231
-0.000477771
-0.000452892
-0.000429334
-0.000407371
-0.000384123
-0.000361301
-0.000339034
-0.00031734
-0.000294646
-0.000272614
-0.000250539
-0.00022872
-0.000206198
-0.000184304
-0.000162026
-0.000139986
-0.000117405
-9.53364e-05
-7.27441e-05
-5.04425e-05
-2.76511e-05
-5.27646e-06
1.76581e-05
4.02555e-05
6.33404e-05
8.60679e-05
0.000109347
0.000132255
0.000155665
0.000178749
0.000202348
0.00022555
0.000249283
0.000272694
0.000296546
0.000319995
0.000344027
0.000367675
0.000391657
0.000415302
0.000439566
0.000463254
0.000487194
0.000510976
0.000535277
0.000558632
0.000582314
0.000606087
0.00062989
0.000652214
0.000675272
0.000698441
0.000720268
0.000740052
0.000761437
0.000781562
0.000817709
0.000843047
0.000854976
0.000856669
0.000873728
0.000880689
0.000847533
0.000820228
0.000804559
0.000721607
0.000603256
0.000499256
0.000333816
0.000124373
-0.000125977
-0.000375309
-0.000524913
-0.000815409
-0.00110794
-0.00133072
-0.00140013
-0.00147322
-0.00156319
-0.00154539
-0.00142157
-0.0013622
-0.00130057
-0.00125765
-0.00116257
-0.00106027
-0.00101734
-0.000960848
-0.000883768
-0.000832142
-0.000794268
-0.000746647
-0.000699457
-0.000665581
-0.000633639
-0.000598467
-0.000567104
-0.000541686
-0.000514821
-0.000487853
-0.000463887
-0.000441773
-0.000417931
-0.000395158
-0.000373667
-0.000352381
-0.00032999
-0.000308724
-0.000287509
-0.00026621
-0.000244293
-0.000223177
-0.000201566
-0.000180025
-0.000158038
-0.000136565
-0.000114464
-9.25953e-05
-7.02808e-05
-4.83321e-05
-2.57762e-05
-3.52626e-06
1.92062e-05
4.16165e-05
6.45987e-05
8.72577e-05
0.00011041
0.000133244
0.000156643
0.000179701
0.000203231
0.000226466
0.000250271
0.00027367
0.000297527
0.000321173
0.000345334
0.000368954
0.000393142
0.000417227
0.000441574
0.000465294
0.000489942
0.000514398
0.000538564
0.000562412
0.000587768
0.000612109
0.000635527
0.000659918
0.000685901
0.000708534
0.00073061
0.000756233
0.00078058
0.00079732
0.000847166
0.000867881
0.000886277
0.000905481
0.000918068
0.00091558
0.000910339
0.000895926
0.000845831
0.000776311
0.000681396
0.000518993
0.000375554
0.000182822
-0.000245404
-0.000434311
-0.000496866
-0.000900514
-0.00112839
-0.00139858
-0.00168941
-0.00171975
-0.00160276
-0.0016523
-0.00152123
-0.00142312
-0.00140106
-0.00130385
-0.00120157
-0.00110095
-0.00103477
-0.000976348
-0.000902613
-0.000841884
-0.000794878
-0.000746396
-0.000698531
-0.000659149
-0.000623881
-0.000589045
-0.000556214
-0.00052818
-0.000501678
-0.00047557
-0.000450634
-0.000428312
-0.000406048
-0.000383948
-0.000362339
-0.00034196
-0.000320954
-0.000300146
-0.00027936
-0.000259075
-0.000238036
-0.000217283
-0.000196241
-0.000175425
-0.000153937
-0.000132769
-0.000111138
-8.96913e-05
-6.76653e-05
-4.5947e-05
-2.36967e-05
-1.66671e-06
2.08911e-05
4.31642e-05
6.59796e-05
8.85271e-05
0.00011159
0.000134386
0.0001577
0.000180712
0.000204259
0.000227538
0.000251285
0.000274736
0.000298766
0.000322474
0.000346605
0.000370525
0.000395042
0.000419106
0.000443639
0.000468135
0.0004931
0.000517459
0.000542571
0.000567763
0.000593035
0.00061776
0.000643761
0.000669548
0.000694827
0.000720082
0.00074693
0.000772357
0.000796653
0.000821664
0.000876493
0.000895978
0.00092615
0.000957468
0.000962087
0.000964668
0.000992459
0.00097409
0.000894087
0.000856101
0.000797122
0.000590334
0.00038356
0.000226371
-5.04893e-05
-0.000430972
-0.000838084
-0.000799165
-0.000936224
-0.00128233
-0.00131568
-0.00162313
-0.00172094
-0.00150281
-0.00158525
-0.00159313
-0.0014954
-0.00127635
-0.00120509
-0.00117274
-0.00105286
-0.00096177
-0.000920014
-0.000861989
-0.000790524
-0.000740766
-0.00070211
-0.000655575
-0.000611412
-0.000579494
-0.000548746
-0.000515475
-0.000486899
-0.000463764
-0.00043915
-0.000414601
-0.000393091
-0.000373112
-0.000351582
-0.000330894
-0.000311295
-0.000291738
-0.000271161
-0.000251344
-0.000231462
-0.000211382
-0.000190659
-0.000170425
-0.000149675
-0.000128868
-0.000107564
-8.65585e-05
-6.49467e-05
-4.34317e-05
-2.14451e-05
3.19283e-07
2.26632e-05
4.48247e-05
6.74602e-05
8.98829e-05
0.000112856
0.000135602
0.000158815
0.000181819
0.000205366
0.000228639
0.000252376
0.000275947
0.000300045
0.000323792
0.00034807
0.000372277
0.000396899
0.000421117
0.00044612
0.000471085
0.000496173
0.000521051
0.000547211
0.000572988
0.0005985
0.000624697
0.00065261
0.000678865
0.000704985
0.000733861
0.000763521
0.000788748
0.00081623
0.000849093
0.00090321
0.000938734
0.000968764
0.000992875
0.00102336
0.00104867
0.00104608
0.00103499
0.00103565
0.000969537
0.000824681
0.000722019
0.000551705
0.000260914
0.000199778
-0.000303304
-0.00109726
-0.00048744
-0.000434229
-0.00101035
-0.000522641
-0.000958907
-0.00118207
-0.000993789
-0.00155763
-0.00167307
-0.00142789
-0.00134519
-0.00123811
-0.0011453
-0.00106348
-0.000992117
-0.000923266
-0.000854634
-0.000797144
-0.000745866
-0.000694826
-0.00064902
-0.000608355
-0.000570391
-0.000536059
-0.0005058
-0.000476805
-0.000450114
-0.000426247
-0.000403834
-0.000381446
-0.000360745
-0.000340991
-0.000321376
-0.00030152
-0.000282564
-0.000263404
-0.000244109
-0.000224483
-0.000205215
-0.000185352
-0.000165435
-0.000145108
-0.000124904
-0.000104075
-8.33013e-05
-6.20601e-05
-4.08993e-05
-1.91773e-05
2.42728e-06
2.45217e-05
4.64999e-05
6.89899e-05
9.13374e-05
0.000114165
0.00013683
0.000160001
0.000183013
0.000206471
0.000229759
0.000253588
0.000277211
0.000301256
0.000325211
0.000349736
0.00037395
0.000398672
0.000423489
0.000448777
0.000473665
0.000499436
0.000525449
0.000551579
0.000577569
0.000605176
0.000632686
0.000659899
0.000688141
0.000718537
0.000747493
0.000776609
0.000808798
0.000841776
0.000871189
0.000933731
0.000977386
0.0010113
0.00103956
0.00108515
0.0011224
0.00111951
0.00113044
0.00116027
0.00107787
0.000938407
0.000890838
0.00074265
0.000412207
0.000143888
-0.000223848
-0.0005744
-0.000384196
-0.000267466
-0.000428933
-0.000462286
-0.000584459
-0.000467461
-0.000542345
-0.00104943
-0.00133277
-0.00134845
-0.00141456
-0.00126877
-0.00111137
-0.00107162
-0.00101025
-0.00091577
-0.000851602
-0.000806568
-0.000746808
-0.000686267
-0.000644003
-0.000606136
-0.000562776
-0.000524572
-0.000496109
-0.00046799
-0.000438773
-0.000413956
-0.000393074
-0.000371232
-0.000349742
-0.000330466
-0.000312123
-0.000292741
-0.000273888
-0.000255596
-0.000237187
-0.000217994
-0.000199138
-0.00018003
-0.000160661
-0.000140708
-0.000120915
-0.000100602
-8.01459e-05
-5.92019e-05
-3.83368e-05
-1.69245e-05
4.504e-06
2.6385e-05
4.81952e-05
7.05201e-05
9.27785e-05
0.000115474
0.000138085
0.000161188
0.00018417
0.000207587
0.000230928
0.000254753
0.000278413
0.00030255
0.000326663
0.000351234
0.000375624
0.000400645
0.000425711
0.000451152
0.000476539
0.00050289
0.000529242
0.000555865
0.000582962
0.000611475
0.000639578
0.00066811
0.000698423
0.00073026
0.000760527
0.00079245
0.000828493
0.000864168
0.000895942
0.000967165
0.00100431
0.00105266
0.00110357
0.00113876
0.00117541
0.00122901
0.00124887
0.00121475
0.00122322
0.00123662
0.0010074
0.000747281
0.000502556
9.95727e-06
-0.000229463
-0.000338254
-0.000500406
-0.000541491
-0.000346658
-0.000460874
-0.000401694
-0.000351647
-0.000389639
-0.000561626
-0.000829926
-0.0011906
-0.00128438
-0.00121065
-0.00116346
-0.00107856
-0.000981574
-0.000919572
-0.000866009
-0.000797289
-0.000738415
-0.000692324
-0.000642086
-0.000593476
-0.000556344
-0.000521811
-0.000485935
-0.000455639
-0.000430944
-0.000405744
-0.000381468
-0.000360788
-0.000341546
-0.000321458
-0.00030249
-0.00028471
-0.000266782
-0.000248231
-0.000230284
-0.000212226
-0.000193761
-0.000174822
-0.000156059
-0.000136759
-0.000117186
-9.71787e-05
-7.71617e-05
-5.65699e-05
-3.586e-05
-1.47165e-05
6.45856e-06
2.81475e-05
4.9862e-05
7.20039e-05
9.41361e-05
0.000116742
0.000139326
0.000162314
0.000185264
0.000208699
0.000232067
0.000255817
0.000279578
0.000303864
0.000327998
0.00035258
0.000377344
0.000402596
0.00042761
0.00045341
0.000479606
0.000506025
0.000532411
0.000560369
0.000588579
0.0006166
0.000645774
0.000677446
0.000708182
0.000739134
0.000774039
0.00081089
0.000844544
0.000881849
0.000926046
0.000994407
0.00103869
0.00109184
0.0011516
0.00119912
0.0012418
0.00130876
0.00135835
0.00134958
0.0013639
0.00138334
0.00128652
0.00097512
0.000244045
-0.000317584
-0.000345193
-0.000433577
-0.000477253
-0.000427784
-0.000381853
-0.000455739
-0.00037342
-0.00034187
-0.00036233
-0.000385638
-0.000414519
-0.000729835
-0.0011316
-0.00124532
-0.00115737
-0.00103061
-0.000975366
-0.000935713
-0.000862749
-0.000788006
-0.000737591
-0.000691663
-0.0006377
-0.000588249
-0.000550268
-0.000515112
-0.00047922
-0.000447813
-0.000422108
-0.000397522
-0.000373509
-0.000352171
-0.000333041
-0.000313847
-0.000295091
-0.000277328
-0.000260003
-0.00024216
-0.000224457
-0.000206764
-0.000188886
-0.000170427
-0.000151928
-0.000133036
-0.000113872
-9.41828e-05
-7.43969e-05
-5.41219e-05
-3.36545e-05
-1.2725e-05
8.28816e-06
2.97746e-05
5.13579e-05
7.33617e-05
9.54151e-05
0.000117909
0.000140431
0.000163357
0.000186311
0.000209689
0.000233057
0.000256853
0.000280685
0.000304943
0.000329203
0.000353977
0.000378828
0.000404139
0.00042956
0.000455675
0.00048193
0.000508765
0.000536014
0.000564236
0.000592688
0.000622059
0.000652474
0.000684218
0.000716314
0.00075011
0.000786129
0.000823735
0.000861539
0.000902815
0.000948586
0.00101584
0.00107701
0.00112827
0.00117968
0.00125471
0.00132653
0.0013717
0.00142902
0.00151123
0.00151848
0.00146487
0.0015906
0.00118668
4.23416e-05
-0.000475265
-0.000433695
-0.000391435
-0.000362549
-0.000406079
-0.000465655
-0.000362438
-0.00035152
-0.000409892
-0.000363071
-0.000254679
-0.000251632
-0.000462753
-0.000940216
-0.0011678
-0.00109121
-0.00104699
-0.00099612
-0.000908742
-0.000842559
-0.000802249
-0.000743326
-0.000675953
-0.00063085
-0.000592918
-0.000545571
-0.000503691
-0.000474405
-0.000445074
-0.000413824
-0.000388703
-0.000368174
-0.0003463
-0.000325109
-0.000307064
-0.000289756
-0.00027141
-0.000253853
-0.000237116
-0.000219939
-0.000202102
-0.000184585
-0.000166828
-0.000148543
-0.000129782
-0.000111008
-9.17039e-05
-7.20446e-05
-5.19704e-05
-3.17684e-05
-1.10449e-05
9.88027e-06
3.11986e-05
5.26343e-05
7.45307e-05
9.65391e-05
0.000118919
0.000141375
0.000164272
0.000187226
0.000210528
0.000233915
0.000257772
0.000281621
0.000305846
0.000330279
0.000355197
0.00038003
0.000405462
0.000431335
0.000457563
0.00048378
0.000511244
0.000539247
0.000567268
0.000596084
0.00062721
0.000658207
0.000689262
0.000723584
0.000760662
0.000795641
0.000833222
0.000878258
0.000923049
0.000963986
0.00103721
0.00109471
0.00115741
0.00122144
0.00129332
0.00137501
0.00144454
0.00150809
0.0016073
0.00166605
0.00165482
0.00171835
0.000710849
-0.000299455
-0.000327055
-0.000394469
-0.000403324
-0.000395918
-0.000405752
-0.000401502
-0.000358507
-0.000378032
-0.00034628
-0.000314405
-0.000279437
-0.00028231
-0.000293035
-0.000676929
-0.00109266
-0.00107111
-0.00104808
-0.000972916
-0.000902151
-0.000851037
-0.000794407
-0.000733364
-0.000679451
-0.000630507
-0.000583871
-0.000541559
-0.000503375
-0.000468664
-0.000437843
-0.000410254
-0.000384736
-0.000361626
-0.000340701
-0.000321035
-0.000302138
-0.000284326
-0.000267067
-0.000249965
-0.000232877
-0.000215983
-0.000198835
-0.000181451
-0.000163734
-0.000145831
-0.000127435
-0.000108746
-8.96175e-05
-7.02295e-05
-5.03472e-05
-3.02271e-05
-9.66834e-06
1.1102e-05
3.231e-05
5.36882e-05
7.54724e-05
9.73988e-05
0.000119722
0.000142167
0.00016499
0.00018791
0.000211228
0.000234643
0.000258431
0.00028233
0.000306678
0.000331117
0.000355989
0.000381083
0.000406709
0.000432468
0.000458875
0.00048573
0.000513211
0.000541041
0.000570026
0.000599726
0.000630228
0.000661802
0.000695319
0.000729733
0.000765688
0.000804225
0.000845328
0.000887861
0.000934075
0.000984199
0.00105248
0.001105
0.00117718
0.00125734
0.00132148
0.00139423
0.00150062
0.00160288
0.00166762
0.00173264
0.00186698
0.00157689
0.000302317
-0.000401252
-0.000281875
-0.00036235
-0.000421178
-0.000411056
-0.000365413
-0.00035117
-0.000399578
-0.000383419
-0.000300232
-0.000299982
-0.000313132
-0.000249723
-0.000209047
-0.000490078
-0.000966953
-0.00109266
-0.00100512
-0.000942179
-0.000917378
-0.000859894
-0.00077796
-0.000724966
-0.000686694
-0.000630448
-0.000574891
-0.000538467
-0.000504562
-0.00046491
-0.000432047
-0.000407771
-0.00038265
-0.000357213
-0.000336548
-0.000318355
-0.000299068
-0.000280577
-0.000263979
-0.000247418
-0.000230083
-0.000213217
-0.000196569
-0.000179371
-0.000161629
-0.00014393
-0.000125825
-0.000107218
-8.81714e-05
-6.89612e-05
-4.92341e-05
-2.91678e-05
-8.7066e-06
1.19521e-05
3.30778e-05
5.44208e-05
7.61293e-05
9.79975e-05
0.000120284
0.000142717
0.000165487
0.000188392
0.000211718
0.000235138
0.000258892
0.000282838
0.000307242
0.000331682
0.000356565
0.000381823
0.000407526
0.000433259
0.000459847
0.000487035
0.000514497
0.000542375
0.000571987
0.000602081
0.000632308
0.000664505
0.000699423
0.000733735
0.000769348
0.000810423
0.000853511
0.000894239
0.000941829
0.000998983
0.0010573
0.00112378
0.00118677
0.00125566
0.0013431
0.00143288
0.00151624
0.00161083
0.00171105
0.00184954
0.00200694
0.00144306
0.000345765
-0.00036612
-0.000419775
-0.000373286
-0.000350974
-0.000378431
-0.000397867
-0.000389183
-0.000356376
-0.000329875
-0.000347902
-0.000311672
-0.000271998
-0.000239288
-0.000188993
-0.000433804
-0.000831553
-0.00103817
-0.00101154
-0.000971159
-0.000898444
-0.000836171
-0.000792593
-0.000735261
-0.000671666
-0.000624522
-0.000583856
-0.000537589
-0.000496145
-0.000464694
-0.000434536
-0.000404096
-0.000378716
-0.000357294
-0.000335745
-0.000315199
-0.000297163
-0.000279957
-0.00026233
-0.000245337
-0.000228939
-0.000212265
-0.00019513
-0.0001781
-0.000160806
-0.000143039
-0.000124824
-0.000106436
-8.75529e-05
-6.82844e-05
-4.85926e-05
-2.86633e-05
-8.25435e-06
1.24236e-05
3.34925e-05
5.47641e-05
7.64564e-05
9.83356e-05
0.000120573
0.000142965
0.000165752
0.000188677
0.000211939
0.000235353
0.000259188
0.000283124
0.00030743
0.000331982
0.000357004
0.000382106
0.000407772
0.000433894
0.00046048
0.000487274
0.000515164
0.000543702
0.000572635
0.000602479
0.000634331
0.000666627
0.000699664
0.000735599
0.000774177
0.000812388
0.000853751
0.000901328
0.000950089
0.00099869
0.0010573
0.00112378
0.00118677
0.00125566
0.0013431
0.00143288
0.00151624
0.00161083
0.00171105
0.00184954
0.00200694
0.00144306
0.000345765
-0.00036612
-0.000419775
-0.000373286
-0.000350974
-0.000378431
-0.000397867
-0.000389183
-0.000356376
-0.000329875
-0.000347902
-0.000311672
-0.000271998
-0.000239288
-0.000188993
-0.000433804
-0.000831553
-0.00103817
-0.00101154
-0.000971159
-0.000898444
-0.000836171
-0.000792593
-0.000735261
-0.000671666
-0.000624522
-0.000583856
-0.000537589
-0.000496145
-0.000464694
-0.000434536
-0.000404096
-0.000378716
-0.000357294
-0.000335745
-0.000315199
-0.000297163
-0.000279957
-0.00026233
-0.000245337
-0.000228939
-0.000212265
-0.00019513
-0.0001781
-0.000160806
-0.000143039
-0.000124824
-0.000106436
-8.75529e-05
-6.82844e-05
-4.85926e-05
-2.86633e-05
-8.25435e-06
1.24236e-05
3.34925e-05
5.47641e-05
7.64564e-05
9.83356e-05
0.000120573
0.000142965
0.000165752
0.000188677
0.000211939
0.000235353
0.000259188
0.000283124
0.00030743
0.000331982
0.000357004
0.000382106
0.000407772
0.000433894
0.00046048
0.000487274
0.000515164
0.000543702
0.000572635
0.000602479
0.000634331
0.000666627
0.000699664
0.000735599
0.000774177
0.000812388
0.000853751
0.000901328
0.000950089
0.00099869
0.00105248
0.001105
0.00117718
0.00125734
0.00132148
0.00139423
0.00150062
0.00160288
0.00166762
0.00173264
0.00186698
0.00157689
0.000302317
-0.000401252
-0.000281875
-0.00036235
-0.000421178
-0.000411056
-0.000365413
-0.00035117
-0.000399578
-0.000383419
-0.000300232
-0.000299982
-0.000313132
-0.000249723
-0.000209047
-0.000490078
-0.000966953
-0.00109266
-0.00100512
-0.000942179
-0.000917378
-0.000859894
-0.00077796
-0.000724966
-0.000686694
-0.000630448
-0.000574891
-0.000538467
-0.000504562
-0.00046491
-0.000432047
-0.000407771
-0.00038265
-0.000357213
-0.000336548
-0.000318355
-0.000299068
-0.000280577
-0.000263979
-0.000247418
-0.000230083
-0.000213217
-0.000196569
-0.000179371
-0.000161629
-0.00014393
-0.000125825
-0.000107218
-8.81714e-05
-6.89612e-05
-4.92341e-05
-2.91678e-05
-8.7066e-06
1.19521e-05
3.30778e-05
5.44208e-05
7.61293e-05
9.79975e-05
0.000120284
0.000142717
0.000165487
0.000188392
0.000211718
0.000235138
0.000258892
0.000282838
0.000307242
0.000331682
0.000356565
0.000381823
0.000407526
0.000433259
0.000459847