# vtk DataFile Version 3.0
fluid_state
ASCII
DATASET RECTILINEAR_GRID
DIMENSIONS 100 40 1
X_COORDINATES 100 float
0.5 1.5 2.5 3.5 4.5 5.5 6.5 7.5 8.5 9.5 10.5 11.5 12.5 13.5 14.5 15.5 16.5 17.5 18.5 19.5 20.5 21.5 22.5 23.5 24.5 25.5 26.5 27.5 28.5 29.5 30.5 31.5 32.5 33.5 34.5 35.5 36.5 37.5 38.5 39.5 40.5 41.5 42.5 43.5 44.5 45.5 46.5 47.5 48.5 49.5 50.5 51.5 52.5 53.5 54.5 55.5 56.5 57.5 58.5 59.5 60.5 61.5 62.5 63.5 64.5 65.5 66.5 67.5 68.5 69.5 70.5 71.5 72.5 73.5 74.5 75.5 76.5 77.5 78.5 79.5 80.5 81.5 82.5 83.5 84.5 85.5 86.5 87.5 88.5 89.5 90.5 91.5 92.5 93.5 94.5 95.5 96.5 97.5 98.5 99.5 
Y_COORDINATES 40 float
0.5 1.5 2.5 3.5 4.5 5.5 6.5 7.5 8.5 9.5 10.5 11.5 12.5 13.5 14.5 15.5 16.5 17.5 18.5 19.5 20.5 21.5 22.5 23.5 24.5 25.5 26.5 27.5 28.5 29.5 30.5 31.5 32.5 33.5 34.5 35.5 36.5 37.5 38.5 39.5 
Z_COORDINATES 1 float
0
POINT_DATA 4000
SCALARS density_difference float 1
LOOKUP_TABLE default
0.00075646
0.000763639
0.000769282
0.000772728
0.00077097
0.000761519
0.000744174
0.000724936
0.000696243
0.000646441
0.000594085
0.000537482
0.000451291
0.000357054
0.000263519
0.000146193
2.34e-05
-9.57004e-05
-0.000226852
-0.000348603
-0.000456902
-0.000572207
-0.00066503
-0.000734536
-0.000807356
-0.000859083
-0.000886363
-0.000915226
-0.000930104
-0.000926355
-0.00092254
-0.000914341
-0.000894991
-0.000871008
-0.000848238
-0.000823816
-0.000793226
-0.000761535
-0.000733304
-0.000703595
-0.000670339
-0.000638815
-0.000609701
-0.00057902
-0.000547361
-0.000517821
-0.000489274
-0.000459793
-0.000430642
-0.000403019
-0.000375638
-0.000347966
-0.000320988
-0.000294871
-0.000268744
-0.000242718
-0.000217289
-0.000192258
-0.000167201
-0.000142387
-0.000117936
-9.3644e-05
-6.93709e-05
-4.53182e-05
-2.14326e-05
2.37735e-06
2.61514e-05
4.97865e-05
7.33575e-05
9.6866e-05
0.000120366
0.000143793
0.000167169
0.000190494
0.000213868
0.000237161
0.000260362
0.000283579
0.000306878
0.000329969
0.00035296
0.00037611
0.000399226
0.000421895
0.000444636
0.000467659
0.000490189
0.000512104
0.000534564
0.000557026
0.000578116
0.000598945
0.000620822
0.00064135
0.000659724
0.000679029
0.000698629
0.000714397
0.000728523
0.00074401
0.000747318
0.00075443
0.000759412
0.000760914
0.000756847
0.000742846
0.000726638
0.000709305
0.000669298
0.000616851
0.000576165
0.000510674
0.000413899
0.000330888
0.000242524
0.000118783
-5.46985e-06
-0.00011257
-0.000233522
-0.000362317
-0.000464576
-0.000563362
-0.000659955
-0.000724574
-0.000785784
-0.000845916
-0.00086802
-0.000883575
-0.000909794
-0.000911078
-0.000895476
-0.000887973
-0.00087876
-0.000855631
-0.000826951
-0.000804907
-0.000781841
-0.000750039
-0.000718203
-0.000691877
-0.00066317
-0.000630498
-0.000600088
-0.000572448
-0.000542742
-0.000512157
-0.000483658
-0.000456212
-0.000427586
-0.000399395
-0.00037252
-0.00034596
-0.000318928
-0.000292655
-0.000267024
-0.000241492
-0.000215879
-0.000190929
-0.000166189
-0.000141545
-0.000116958
-9.28289e-05
-6.86909e-05
-4.46907e-05
-2.07471e-05
2.91447e-06
2.66723e-05
5.02589e-05
7.38403e-05
9.72551e-05
0.000120783
0.000144115
0.000167504
0.000190793
0.000214159
0.000237307
0.00026059
0.000283782
0.000306949
0.000329911
0.000353104
0.000376097
0.000398912
0.000421638
0.000444638
0.000467112
0.000489302
0.00051167
0.000534081
0.000555372
0.000576549
0.000598154
0.000618908
0.0006379
0.000657384
0.000676826
0.000693687
0.000708678
0.000724354
0.000737842
0.000741389
0.000751168
0.00075434
0.000750792
0.00074589
0.000737369
0.000719455
0.000687617
0.00065225
0.000616109
0.000553367
0.000473285
0.000407689
0.000316608
0.00019608
9.4346e-05
-1.71616e-05
-0.000150494
-0.000263704
-0.000376555
-0.0004937
-0.000578459
-0.000662596
-0.000745924
-0.00078964
-0.000827907
-0.0008712
-0.000885066
-0.000886822
-0.000893832
-0.00089038
-0.000874434
-0.000855668
-0.000840185
-0.000819019
-0.000789996
-0.000763224
-0.000739725
-0.000710631
-0.000679156
-0.000651244
-0.000624068
-0.000593474
-0.000563558
-0.000535889
-0.000507923
-0.000478578
-0.00045069
-0.000423747
-0.000396487
-0.000368985
-0.000342748
-0.000316704
-0.000290626
-0.000264721
-0.000239659
-0.000214484
-0.000189518
-0.000164737
-0.00014046
-0.000116001
-9.18535e-05
-6.77646e-05
-4.39943e-05
-2.00485e-05
3.59109e-06
2.72886e-05
5.07407e-05
7.43678e-05
9.77295e-05
0.000121202
0.000144458
0.000167911
0.00019111
0.000214418
0.000237549
0.000260894
0.000283921
0.00030705
0.000330086
0.000353262
0.000375968
0.000398868
0.000421748
0.000444469
0.000466582
0.000489176
0.000511575
0.000533188
0.000554365
0.000576402
0.000597311
0.000616709
0.000636541
0.000656926
0.000674047
0.000689756
0.000707031
0.000722276
0.000731812
0.00074224
0.000747673
0.000750374
0.000750352
0.000743783
0.000732812
0.000714474
0.000681536
0.000649133
0.000608271
0.000535398
0.000463055
0.000395849
0.000287011
0.000167337
6.43007e-05
-5.36003e-05
-0.000193817
-0.000317448
-0.000420094
-0.00053565
-0.000633459
-0.000701924
-0.000776387
-0.000826131
-0.000846209
-0.000881263
-0.000902187
-0.000890238
-0.000886419
-0.000886382
-0.000871371
-0.000846197
-0.000825291
-0.000807563
-0.000782013
-0.000750895
-0.000725326
-0.000700611
-0.000670894
-0.000640345
-0.000613676
-0.000586194
-0.000556657
-0.000527893
-0.000501241
-0.000473576
-0.000445554
-0.000418451
-0.0003924
-0.000365596
-0.000339198
-0.000313409
-0.000288139
-0.000262422
-0.000237335
-0.000212489
-0.000187954
-0.000163176
-0.000138989
-0.000114772
-9.08193e-05
-6.671e-05
-4.30661e-05
-1.9244e-05
4.30197e-06
2.79998e-05
5.13504e-05
7.49339e-05
9.82176e-05
0.000121689
0.000144893
0.000168317
0.000191423
0.000214776
0.000237885
0.000261143
0.000284097
0.000307364
0.000330312
0.000353304
0.000376084
0.000399187
0.000421733
0.000444277
0.000466787
0.0004894
0.000511063
0.000532896
0.0005548
0.000576095
0.000596091
0.000616754
0.00063698
0.00065526
0.00067244
0.00069062
0.000706305
0.000718751
0.000730984
0.000744455
0.00074777
0.000753244
0.000755917
0.000747571
0.000731777
0.000714821
0.000691954
0.000650676
0.000588857
0.000535931
0.000472866
0.000355677
0.000248262
0.000162872
1.37902e-05
-0.000134255
-0.000243374
-0.000381764
-0.000513635
-0.000606726
-0.000715273
-0.000787956
-0.00082401
-0.000884016
-0.000918532
-0.000907559
-0.00091482
-0.00092334
-0.000907629
-0.00088202
-0.000865627
-0.000851915
-0.00082373
-0.000791685
-0.00077076
-0.000747118
-0.000714922
-0.000685354
-0.000661422
-0.000633392
-0.000602819
-0.000575278
-0.000549597
-0.000521099
-0.000492903
-0.000466539
-0.000440512
-0.000413086
-0.000386805
-0.000361239
-0.000335684
-0.00030962
-0.000284651
-0.000259732
-0.000234932
-0.000209991
-0.000185851
-0.000161473
-0.000137373
-0.000113185
-8.95437e-05
-6.55893e-05
-4.19892e-05
-1.82405e-05
5.10706e-06
2.87724e-05
5.20734e-05
7.55851e-05
9.87612e-05
0.000122255
0.000145389
0.000168759
0.000191834
0.000215224
0.000238225
0.00026147
0.000284471
0.000307735
0.000330529
0.000353618
0.000376503
0.000399466
0.000421871
0.000444735
0.000467287
0.000489521
0.000511276
0.000533729
0.000555301
0.000576025
0.000596803
0.000618187
0.000637224
0.000655289
0.000674439
0.000692603
0.000706106
0.00071991
0.000734941
0.000747398
0.00075865
0.00076338
0.000758949
0.000756462
0.00074734
0.000723545
0.000696657
0.000657463
0.000597174
0.00053877
0.000454111
0.000336507
0.000233843
0.000108885
-5.14519e-05
-0.000199747
-0.000337439
-0.000480007
-0.000630473
-0.000730511
-0.0008169
-0.000902043
-0.000938545
-0.000959688
-0.000992518
-0.00098025
-0.000959675
-0.000955263
-0.000934601
-0.000904154
-0.000874649
-0.000849217
-0.000824847
-0.000792458
-0.00076101
-0.000735076
-0.000708048
-0.000676884
-0.000648347
-0.000621937
-0.000594413
-0.000565463
-0.000538746
-0.00051245
-0.000485585
-0.000458446
-0.000432928
-0.000407111
-0.000381251
-0.000355513
-0.000330826
-0.000305631
-0.000280774
-0.000256029
-0.000231931
-0.000207361
-0.000183303
-0.00015919
-0.000135517
-0.000111463
-8.79323e-05
-6.41867e-05
-4.0813e-05
-1.71148e-05
6.12431e-06
2.96694e-05
5.28459e-05
7.63381e-05
9.94419e-05
0.000122872
0.00014592
0.000169313
0.000192354
0.000215681
0.000238633
0.000261979
0.000284932
0.000308098
0.000330963
0.000354229
0.000376934
0.000399833
0.000422577
0.000445547
0.00046768
0.000490187
0.00051262
0.000534711
0.000555787
0.000577715
0.000599129
0.000619156
0.000638576
0.00065929
0.000677677
0.000693652
0.000710533
0.000727489
0.000738218
0.000759423
0.000771554
0.000774402
0.000773065
0.000774047
0.000765147
0.000741265
0.000708097
0.000670693
0.000623618
0.000535932
0.000422597
0.00034744
0.00021746
8.23823e-06
-0.000116943
-0.000256208
-0.000477535
-0.000629048
-0.000751984
-0.000894866
-0.000963018
-0.00102794
-0.00110066
-0.00107728
-0.00105269
-0.00107571
-0.00104916
-0.000993641
-0.000956275
-0.000936728
-0.000904001
-0.00085293
-0.000819775
-0.000797133
-0.000761449
-0.00072307
-0.000696762
-0.00067046
-0.000638255
-0.000608117
-0.000583355
-0.000556294
-0.000527702
-0.000501276
-0.000476773
-0.000450281
-0.000424169
-0.000399283
-0.000374934
-0.000349391
-0.000324789
-0.000300555
-0.000276504
-0.000251845
-0.000228088
-0.00020419
-0.00018051
-0.000156491
-0.00013317
-0.000109492
-8.61334e-05
-6.24967e-05
-3.93844e-05
-1.58581e-05
7.28855e-06
3.07338e-05
5.37549e-05
7.71916e-05
0.000100225
0.000123585
0.000146574
0.000169964
0.000192931
0.000216244
0.000239224
0.000262565
0.000285443
0.000308705
0.000331655
0.000354855
0.000377558
0.000400736
0.000423532
0.000446362
0.000468753
0.00049174
0.000514027
0.000536065
0.000557959
0.000580399
0.000601333
0.000621917
0.000642962
0.000663713
0.000681518
0.000699666
0.000718659
0.00073442
0.00074574
0.000776888
0.000782064
0.000791771
0.000803071
0.000795183
0.000779187
0.000772841
0.000743524
0.000687298
0.000633735
0.000552696
0.000440804
0.000322221
0.000152089
-1.69781e-05
-0.000188529
-0.000405669
-0.000597058
-0.00078075
-0.000922083
-0.00107585
-0.00117125
-0.00118789
-0.0012137
-0.0012352
-0.00118668
-0.00115074
-0.0011099
-0.00105967
-0.00101599
-0.000958923
-0.000915252
-0.000878263
-0.000831905
-0.000789465
-0.000757674
-0.000723976
-0.00068793
-0.000656212
-0.000628696
-0.000599007
-0.000569705
-0.000543025
-0.000517588
-0.000490552
-0.00046485
-0.000440236
-0.000415736
-0.000390404
-0.000366423
-0.00034249
-0.00031856
-0.000294292
-0.000271015
-0.000247321
-0.00022384
-0.000200161
-0.000177132
-0.00015359
-0.000130428
-0.000107019
-8.40714e-05
-6.06488e-05
-3.76612e-05
-1.43423e-05
8.57947e-06
3.19313e-05
5.48636e-05
7.81718e-05
0.000101088
0.000124425
0.000147369
0.000170679
0.0001936
0.000216965
0.000239921
0.000263199
0.000286138
0.000309535
0.000332416
0.000355609
0.000378585
0.000401911
0.000424527
0.000447614
0.000470591
0.000493508
0.000515607
0.00053863
0.000561277
0.000583068
0.000604467
0.000627344
0.00064849
0.000667975
0.000688642
0.000710259
0.000726798
0.000742403
0.000761737
0.000792487
0.000805151
0.000819737
0.000826333
0.000822778
0.000818114
0.000806636
0.000775251
0.000726902
0.000655413
0.000575462
0.000479211
0.000281764
8.91119e-05
-7.63245e-06
-0.000287936
-0.00057481
-0.000698487
-0.000938057
-0.00114907
-0.00123997
-0.00136803
-0.00140886
-0.00132712
-0.00135509
-0.00134801
-0.00123183
-0.00116244
-0.00112209
-0.00107405
-0.000995585
-0.000928418
-0.000892871
-0.000848485
-0.000792393
-0.00075207
-0.000720462
-0.000682997
-0.00064543
-0.000616282
-0.000588139
-0.000557855
-0.000529362
-0.00050475
-0.000479136
-0.00045314
-0.00042852
-0.000405466
-0.000381185
-0.000357305
-0.000334048
-0.000311347
-0.000287718
-0.000264741
-0.000241799
-0.00021911
-0.000195801
-0.000173123
-0.000150151
-0.000127425
-0.000104251
-8.16038e-05
-5.85297e-05
-3.5764e-05
-1.26086e-05
1.01088e-05
3.32842e-05
5.6099e-05
7.92981e-05
0.000102115
0.00012538
0.00014825
0.000171518
0.000194438
0.000217772
0.000240686
0.000264034
0.000287042
0.000310396
0.000333333
0.000356763
0.000379801
0.000403086
0.000426032
0.000449519
0.000472433
0.000495527
0.000518474
0.000541876
0.000564348
0.000587092
0.000609954
0.000632795
0.000654191
0.000676283
0.000698526
0.000719391
0.000738266
0.000758718
0.000777955
0.000813328
0.000837853
0.000848924
0.000849815
0.00086609
0.000872287
0.000838299
0.000810251
0.00079373
0.000709876
0.000590621
0.00048553
0.000318788
0.000108176
-0.000143703
-0.000394334
-0.000545039
-0.00083701
-0.00113052
-0.001354
-0.00142344
-0.00149623
-0.001586
-0.00156737
-0.00144252
-0.00138226
-0.00131977
-0.00127615
-0.00118004
-0.00107667
-0.00103304
-0.00097566
-0.000897588
-0.000845018
-0.000806245
-0.000757603
-0.0007094
-0.000674468
-0.000641493
-0.000605218
-0.000572781
-0.000546247
-0.000518302
-0.000490208
-0.000465163
-0.000441939
-0.000417035
-0.000393172
-0.000370651
-0.000348315
-0.000324936
-0.000302668
-0.000280523
-0.000258287
-0.000235506
-0.000213527
-0.000191134
-0.000168815
-0.000146137
-0.000123983
-0.000101293
-7.88498e-05
-5.60558e-05
-3.36468e-05
-1.0729e-05
1.18611e-05
3.4833e-05
5.74585e-05
8.05541e-05
0.000103301
0.000126439
0.000149234
0.000172492
0.000195386
0.000218651
0.000241598
0.00026502
0.000288015
0.000311376
0.00033451
0.000358071
0.000381082
0.000404575
0.000427964
0.000451537
0.000474484
0.00049829
0.000521916
0.000545185
0.000568154
0.000592579
0.000616014
0.000638475
0.000661945
0.000686973
0.000708685
0.000729808
0.000754539
0.000777964
0.000793825
0.000842955
0.000862846
0.000880427
0.000898886
0.000910664
0.000907423
0.000901463
0.000886263
0.000835248
0.000765002
0.000669053
0.000505227
0.000360752
0.000166761
-0.000263824
-0.000454027
-0.00051727
-0.000922458
-0.00115166
-0.00142276
-0.00171408
-0.00174363
-0.00162533
-0.00167445
-0.00154241
-0.00144328
-0.00142017
-0.00132202
-0.00121898
-0.00111727
-0.00105021
-0.000991012
-0.000916364
-0.000854665
-0.000806753
-0.000757276
-0.000708404
-0.00066797
-0.000631662
-0.000595724
-0.000561814
-0.000532664
-0.000505074
-0.000477842
-0.000451823
-0.000428392
-0.000405066
-0.000381881
-0.000359242
-0.000337819
-0.000315829
-0.000294027
-0.000272314
-0.000251098
-0.0002292
-0.00020759
-0.00018577
-0.000164184
-0.000142008
-0.000120165
-9.79476e-05
-7.59317e-05
-5.34285e-05
-3.12543e-05
-8.64344e-06
1.37229e-05
3.65193e-05
5.90048e-05
8.19333e-05
0.000104567
0.000127616
0.000150371
0.000173544
0.00019639
0.000219674
0.000242665
0.00026603
0.000289078
0.000312614
0.000335812
0.000359345
0.000382656
0.000406483
0.000429851
0.000453613
0.00047734
0.000501469
0.000524998
0.00054922
0.00057354
0.000597885
0.000621706
0.000646764
0.000671639
0.000695964
0.000720313
0.00074623
0.000770766
0.00079415
0.000818318
0.00087244
0.000891125
0.000920514
0.000951115
0.000954955
0.000956821
0.000983924
0.000964808
0.000883947
0.000845127
0.000785062
0.000577142
0.000368965
0.000209983
-6.85663e-05
-0.000450927
-0.000859692
-0.000820728
-0.00095696
-0.00130293
-0.00133607
-0.00164482
-0.00174361
-0.00152441
-0.00160622
-0.00161337
-0.00151473
-0.00129403
-0.00122198
-0.00118909
-0.00106819
-0.000976156
-0.000933641
-0.000874725
-0.000802304
-0.000751566
-0.000711938
-0.000664351
-0.000619128
-0.000586118
-0.000554291
-0.000519895
-0.000490221
-0.000465966
-0.000440265
-0.000414604
-0.000392028
-0.000370971
-0.00034841
-0.000326681
-0.000306099
-0.000285556
-0.000264053
-0.000243312
-0.000222574
-0.000201645
-0.000180147
-0.000159149
-0.000137714
-0.000116239
-9.43506e-05
-7.27812e-05
-5.06939e-05
-2.87278e-05
-6.38166e-06
1.57148e-05
3.82969e-05
6.06674e-05
8.34161e-05
0.000105922
0.000128882
0.000151585
0.000174659
0.000197495
0.00022078
0.000243765
0.00026712
0.000290288
0.000313894
0.00033713
0.000360814
0.000384413
0.000408348
0.00043187
0.000456107
0.000480305
0.00050456
0.000528611
0.000553887
0.000578795
0.000603385
0.000628686
0.000655664
0.000681012
0.00070619
0.000734171
0.000762912
0.000787259
0.000813849
0.000845887
0.000899323
0.000934108
0.000963367
0.000986748
0.00101655
0.00104124
0.00103788
0.00102611
0.00102613
0.000959042
0.000813037
0.000709468
0.0005374
0.000244784
0.000182811
-0.000321349
-0.00111583
-0.000501967
-0.000446772
-0.00102379
-0.000534697
-0.000972568
-0.00119795
-0.00101095
-0.00157707
-0.00169271
-0.00144643
-0.00136291
-0.0012547
-0.00116116
-0.00107858
-0.00100638
-0.000936735
-0.000867219
-0.000808823
-0.000756609
-0.000704586
-0.000657732
-0.000616019
-0.000576966
-0.000541543
-0.000510163
-0.000480066
-0.000452251
-0.000427289
-0.000403771
-0.000380312
-0.000358533
-0.000337747
-0.000317098
-0.000296258
-0.000276321
-0.000256238
-0.000236026
-0.000215546
-0.000195436
-0.000174799
-0.000154126
-0.000133116
-0.00011225
-9.0838e-05
-6.95069e-05
-4.77914e-05
-2.61848e-05
-4.10384e-06
1.78285e-05
4.0161e-05
6.23444e-05
8.4948e-05
0.000107376
0.000130191
0.00015281
0.000175844
0.000198686
0.000221884
0.000244882
0.000268333
0.000291552
0.000315107
0.000338551
0.000362484
0.00038609
0.000410128
0.000434253
0.000458778
0.0004829
0.000507842
0.000533033
0.000558284
0.000583407
0.000610103
0.000636725
0.000663005
0.000690349
0.000719823
0.000747889
0.00077609
0.000807427
0.000839539
0.000868123
0.000930015
0.000972949
0.00100613
0.00103371
0.00107866
0.00111531
0.00111174
0.00112207
0.00115129
0.00106801
0.000927497
0.000878709
0.000729155
0.000397533
0.000129241
-0.000236584
-0.000585151
-0.00039271
-0.0002755
-0.000437099
-0.000470586
-0.000593375
-0.0004764
-0.00055306
-0.00106356
-0.00134954
-0.00136575
-0.00143197
-0.00128527
-0.00112676
-0.00108644
-0.00102436
-0.000929047
-0.000864066
-0.000818193
-0.000757489
-0.000695959
-0.00065268
-0.000613774
-0.000569317
-0.000530011
-0.000500435
-0.00047121
-0.000440863
-0.000414943
-0.000392958
-0.000370042
-0.000347474
-0.000327162
-0.000307789
-0.000287422
-0.000267592
-0.000248377
-0.000229057
-0.000209011
-0.00018932
-0.00016944
-0.00014932
-0.000128686
-0.000108236
-8.7342e-05
-6.63336e-05
-4.4916e-05
-2.36099e-05
-1.83912e-06
1.9913e-05
4.20321e-05
6.40438e-05
8.64829e-05
0.000108818
0.000131503
0.000154065
0.000177032
0.000199843
0.000223002
0.000246051
0.000269499
0.000292754
0.000316404
0.000340005
0.000363988
0.000387769
0.000412111
0.000436484
0.000461166
0.000485787
0.000511315
0.000536846
0.000562596
0.00058883
0.000616438
0.000643656
0.000671266
0.000700688
0.000731611
0.000760997
0.000792024
0.000827226
0.00086205
0.00089302
0.000963628
0.00100004
0.00104772
0.00109803
0.00113257
0.00116864
0.00122177
0.0012411
0.00120619
0.0012141
0.00122689
0.000996031
0.000734453
0.000490165
-3.30451e-07
-0.000237737
-0.000346037
-0.000508969
-0.000550189
-0.000354733
-0.000469365
-0.000410279
-0.000360146
-0.000398023
-0.000571139
-0.000841925
-0.00120592
-0.00130082
-0.00122649
-0.00117861
-0.00109313
-0.000995426
-0.000932659
-0.000878365
-0.00080881
-0.000749007
-0.00070197
-0.000650727
-0.00060106
-0.000562845
-0.000527225
-0.000490226
-0.000458812
-0.000432997
-0.000406693
-0.000381305
-0.000359546
-0.000339232
-0.000318106
-0.000298108
-0.000279343
-0.000260443
-0.000240967
-0.000222114
-0.000203204
-0.000183908
-0.000164199
-0.00014469
-0.00012471
-0.000104486
-8.38979e-05
-6.33337e-05
-4.22689e-05
-2.11225e-05
3.79537e-07
2.18741e-05
4.38014e-05
6.5714e-05
8.79709e-05
0.000110177
0.000132773
0.000155307
0.00017816
0.000200935
0.000224114
0.000247189
0.000270565
0.00029392
0.000317721
0.000341342
0.000365338
0.000389495
0.00041407
0.000438391
0.000463436
0.000488869
0.00051447
0.000540034
0.000567126
0.000594478
0.000621598
0.000649889
0.000680654
0.000710505
0.000740545
0.000774586
0.000810564
0.000843377
0.000879842
0.000923279
0.000991009
0.00103461
0.00108711
0.00114629
0.00119324
0.00123541
0.00130193
0.00135107
0.00134176
0.00135563
0.00137434
0.00127649
0.000964688
0.000234498
-0.000325872
-0.000353036
-0.000441615
-0.000485512
-0.000436149
-0.000390314
-0.0004644
-0.000381796
-0.00035017
-0.000370689
-0.000394235
-0.000423645
-0.000741581
-0.00114627
-0.00126075
-0.00117223
-0.00104469
-0.000988958
-0.000948734
-0.000874987
-0.000799399
-0.000748129
-0.000701279
-0.000646303
-0.000595804
-0.000556753
-0.000520505
-0.00048349
-0.000450964
-0.000424137
-0.000398441
-0.000373318
-0.000350897
-0.000330694
-0.000310459
-0.000290674
-0.000271924
-0.00025363
-0.000234862
-0.000216255
-0.00019771
-0.000179006
-0.000159776
-0.000140536
-0.000120964
-0.000101153
-8.08837e-05
-6.05546e-05
-3.98068e-05
-1.89066e-05
2.38146e-06
2.37107e-05
4.5436e-05
6.72143e-05
8.93337e-05
0.000111458
0.000133943
0.000156412
0.000179205
0.000201983
0.000225106
0.000248179
0.000271603
0.000295027
0.000318804
0.00034255
0.00036674
0.000390983
0.00041562
0.000440348
0.000465712
0.000491204
0.000517223
0.000543654
0.000571015
0.000598608
0.000627087
0.000656624
0.000687464
0.000718679
0.000751579
0.000786739
0.000823478
0.00086046
0.000900919
0.000945932
0.00101256
0.0010731
0.00112372
0.00117456
0.00124911
0.00132053
0.00136523
0.00142219
0.00150418
0.00151093
0.00145651
0.0015823
0.0011792
3.47702e-05
-0.000483163
-0.000441472
-0.000399477
-0.000370707
-0.000414414
-0.000474194
-0.000370773
-0.000359911
-0.000418515
-0.000371509
-0.000262703
-0.000259922
-0.000472244
-0.00095266
-0.00118233
-0.00110561
-0.00106088
-0.00100952
-0.000921538
-0.000854635
-0.000813584
-0.00075382
-0.000685489
-0.000639399
-0.00060046
-0.000552035
-0.000509046
-0.000478654
-0.000448213
-0.000415829
-0.000389594
-0.000367963
-0.000345003
-0.000322734
-0.000303647
-0.000285316
-0.000265979
-0.000247452
-0.000229791
-0.000211714
-0.000193023
-0.000174683
-0.000156156
-0.000137133
-0.000117691
-9.82747e-05
-7.83907e-05
-5.81911e-05
-3.76441e-05
-1.70125e-05
4.06967e-06
2.53081e-05
4.68658e-05
6.84938e-05
9.05065e-05
0.000112584
0.000134955
0.000157357
0.000180122
0.000202898
0.000225946
0.000249038
0.000272524
0.000295965
0.000319709
0.000343627
0.000367966
0.000392188
0.000416949
0.000442129
0.00046761
0.000493063
0.000519716
0.000546903
0.000574065
0.000602024
0.000632265
0.000662388
0.000692541
0.000725989
0.000762186
0.000796306
0.000833025
0.00087726
0.000921256
0.00096143
0.00103404
0.0010909
0.00115301
0.00121652
0.00128792
0.00136925
0.00143845
0.00150171
0.00160069
0.00165915
0.00164762
0.00171113
0.000703585
-0.000306965
-0.000334463
-0.00040214
-0.000411419
-0.000404108
-0.000414078
-0.000409885
-0.000366876
-0.000386494
-0.000354673
-0.000322811
-0.000287584
-0.000290522
-0.000301573
-0.000687962
-0.00110644
-0.00108498
-0.00106182
-0.000986126
-0.000914759
-0.000863039
-0.000805677
-0.000743777
-0.000688956
-0.000639044
-0.000591381
-0.000548001
-0.000508728
-0.000472903
-0.000440963
-0.000412251
-0.000385619
-0.000361399
-0.000339387
-0.000318647
-0.000298705
-0.000279867
-0.000261618
-0.000243548
-0.000225533
-0.000207741
-0.00018974
-0.000171534
-0.000153046
-0.000134408
-0.000115331
-9.60019e-05
-7.62931e-05
-5.63674e-05
-3.60122e-05
-1.54646e-05
5.45296e-06
2.65345e-05
4.79821e-05
6.95509e-05
9.14519e-05
0.000113446
0.000135762
0.00015815
0.000180841
0.000203582
0.000226649
0.000249766
0.000273185
0.000296674
0.000320543
0.000344468
0.00036876
0.000393244
0.000418202
0.000443268
0.000468928
0.000495021
0.000521693
0.000548705
0.000576836
0.000605683
0.0006353
0.000666
0.000698627
0.000732169
0.000767241
0.00080493
0.000845188
0.000886916
0.000932339
0.000981736
0.00104939
0.00110126
0.00117288
0.00125258
0.00131624
0.00138862
0.00149478
0.0015969
0.00166142
0.00172624
0.00186059
0.00157039
0.000294974
-0.000408746
-0.000288991
-0.000370122
-0.000429322
-0.000419198
-0.000373593
-0.000359478
-0.000408089
-0.000391856
-0.000308458
-0.000308379
-0.00032154
-0.000257726
-0.000217196
-0.000500131
-0.000979766
-0.00110636
-0.00101853
-0.000955157
-0.000929928
-0.000871856
-0.000789137
-0.00073531
-0.000696184
-0.000638969
-0.000582366
-0.000544888
-0.000509911
-0.000469138
-0.00043515
-0.000409759
-0.000383527
-0.000356975
-0.000335222
-0.000315959
-0.000295625
-0.000276106
-0.000258518
-0.000240992
-0.000222728
-0.000204963
-0.000187463
-0.000169444
-0.000150931
-0.000132498
-0.000113713
-9.44663e-05
-7.48398e-05
-5.50935e-05
-3.48936e-05
-1.44011e-05
6.419e-06
2.73875e-05
4.87529e-05
7.02853e-05
9.21109e-05
0.000114045
0.000136325
0.0001587
0.00018134
0.000204065
0.000227139
0.000250261
0.000273648
0.000297182
0.000321109
0.000345033
0.000369338
0.000393986
0.000419022
0.000444061
0.000469904
0.000496331
0.000522986
0.000550047
0.000578807
0.00060805
0.000637393
0.000668718
0.000702751
0.000736194
0.000770924
0.000811158
0.000853412
0.000893333
0.000940137
0.000996585
0.00105422
0.00112011
0.00118252
0.00125092
0.00133795
0.00142743
0.00151051
0.00160493
0.00170505
0.00184363
0.00200119
0.00143698
0.000339155
-0.000373148
-0.000427471
-0.000381075
-0.000358751
-0.000386576
-0.000406185
-0.000397528
-0.000364698
-0.000338241
-0.000356374
-0.000319916
-0.000280283
-0.000247523
-0.000196828
-0.000443218
-0.000843582
-0.00105155
-0.0010248
-0.000984163
-0.000910933
-0.000848013
-0.000803758
-0.000745629
-0.000681113
-0.000633006
-0.000591345
-0.000544014
-0.000501471
-0.000468917
-0.000437647
-0.000406079
-0.000379582
-0.000357056
-0.000334418
-0.000312795
-0.000293714
-0.000275483
-0.000256864
-0.000238904
-0.000221579
-0.000204008
-0.000186018
-0.000168169
-0.000150103
-0.000131603
-0.000112708
-9.3681e-05
-7.42179e-05
-5.44138e-05
-3.42491e-05
-1.38945e-05
6.87342e-06
2.78606e-05
4.91694e-05
7.06296e-05
9.24393e-05
0.000114384
0.000136615
0.000158948
0.000181605
0.00020435
0.000227361
0.000250476
0.000273944
0.000297469
0.000321298
0.000345334
0.000369779
0.00039427
0.000419269
0.000444699
0.000470541
0.000496572
0.000523656
0.000551378
0.000579459
0.000608449
0.000639423
0.00067085
0.000702997
0.000738064
0.000775772
0.000813137
0.000853657
0.000900447
0.000948435
0.000996306
0.00105422
0.00112011
0.00118252
0.00125092
0.00133795
0.00142743
0.00151051
0.00160493
0.00170505
0.00184363
0.00200119
0.00143698
0.000339155
-0.000373148
-0.000427471
-0.000381075
-0.000358751
-0.000386576
-0.000406185
-0.000397528
-0.000364698
-0.000338241
-0.000356374
-0.000319916
-0.000280283
-0.000247523
-0.000196828
-0.000443218
-0.000843582
-0.00105155
-0.0010248
-0.000984163
-0.000910933
-0.000848013
-0.000803758
-0.000745629
-0.000681113
-0.000633006
-0.000591345
-0.000544014
-0.000501471
-0.000468917
-0.000437647
-0.000406079
-0.000379582
-0.000357056
-0.000334418
-0.000312795
-0.000293714
-0.000275483
-0.000256864
-0.000238904
-0.000221579
-0.000204008
-0.000186018
-0.000168169
-0.000150103
-0.000131603
-0.000112708
-9.3681e-05
-7.42179e-05
-5.44138e-05
-3.42491e-05
-1.38945e-05
6.87342e-06
2.78606e-05
4.91694e-05
7.06296e-05
9.24393e-05
0.000114384
0.000136615
0.000158948
0.000181605
0.00020435
0.000227361
0.000250476
0.000273944
0.000297469
0.000321298
0.000345334
0.000369779
0.00039427
0.000419269
0.000444699
0.000470541
0.000496572
0.000523656
0.000551378
0.000579459
0.000608449
0.000639423
0.00067085
0.000702997
0.000738064
0.000775772
0.000813137
0.000853657
0.000900447
0.000948435
0.000996306
0.00104939
0.00110126
0.00117288
0.00125258
0.00131624
0.00138862
0.00149478
0.0015969
0.00166142
0.00172624
0.00186059
0.00157039
0.000294974
-0.000408746
-0.000288991
-0.000370122
-0.000429322
-0.000419198
-0.000373593
-0.000359478
-0.000408089
-0.000391856
-0.000308458
-0.000308379
-0.00032154
-0.000257726
-0.000217196
-0.000500131
-0.000979766
-0.00110636
-0.00101853
-0.000955157
-0.000929928
-0.000871856
-0.000789137
-0.00073531
-0.000696184
-0.000638969
-0.000582366
-0.000544888
-0.000509911
-0.000469138
-0.00043515
-0.000409759
-0.000383527
-0.000356975
-0.000335222
-0.000315959
-0.000295625
-0.000276106
-0.000258518
-0.000240992
-0.000222728
-0.000204963
-0.000187463
-0.000169444
-0.000150931
-0.000132498
-0.000113713
-9.44663e-05
-7.48398e-05
-5.50935e-05
-3.48936e-05
-1.44011e-05
6.419e-06
2.73875e-05
4.87529e-05
7.02853e-05
9.21109e-05
0.000114045
0.000136325
0.0001587
0.00018134
0.000204065
0.000227139
0.000250261
0.000273648
0.000297182
0.000321109
0.000345033
0.000369338
0.000393986
0.000419022
0.000444061
0.000469904
0.000496331
0.000522986