# vtk DataFile Version 3.0
fluid_state
ASCII
DATASET RECTILINEAR_GRID
DIMENSIONS 100 40 1
X_COORDINATES 100 float
0.5 1.5 2.5 3.5 4.5 5.5 6.5 7.5 8.5 9.5 10.5 11.5 12.5 13.5 14.5 15.5 16.5 17.5 18.5 19.5 20.5 21.5 22.5 23.5 24.5 25.5 26.5 27.5 28.5 29.5 30.5 31.5 32.5 33.5 34.5 35.5 36.5 37.5 38.5 39.5 40.5 41.5 42.5 43.5 44.5 45.5 46.5 47.5 48.5 49.5 50.5 51.5 52.5 53.5 54.5 55.5 56.5 57.5 58.5 59.5 60.5 61.5 62.5 63.5 64.5 65.5 66.5 67.5 68.5 69.5 70.5 71.5 72.5 73.5 74.5 75.5 76.5 77.5 78.5 79.5 80.5 81.5 82.5 83.5 84.5 85.5 86.5 87.5 88.5 89.5 90.5 91.5 92.5 93.5 94.5 95.5 96.5 97.5 98.5 99.5 
Y_COORDINATES 40 float
0.5 1.5 2.5 3.5 4.5 5.5 6.5 7.5 8.5 9.5 10.5 11.5 12.5 13.5 14.5 15.5 16.5 17.5 18.5 19.5 20.5 21.5 22.5 23.5 24.5 25.5 26.5 27.5 28.5 29.5 30.5 31.5 32.5 33.5 34.5 35.5 36.5 37.5 38.5 39.5 
Z_COORDINATES 1 float
0
POINT_DATA 4000
SCALARS density_difference float 1
LOOKUP_TABLE default
-0.00451836
-0.0037209
-0.00290434
-0.00207338
-0.00122572
-0.0003601
0.000520355
0.00141396
0.00231861
0.00324068
0.00417494
0.00510666
0.00605742
0.00702369
0.00796621
0.00891345
0.00988297
0.0108065
0.0116889
0.0125762
0.0134051
0.0141456
0.0148212
0.0154194
0.0159264
0.0163174
0.0165867
0.0167809
0.0168751
0.0168442
0.0167307
0.0165432
0.016286
0.0159495
0.0155342
0.0150995
0.0146257
0.0140703
0.0135001
0.0129341
0.0123134
0.0116628
0.0110274
0.0103747
0.00969071
0.00900977
0.00833105
0.00763313
0.00692624
0.00622113
0.0055068
0.00477931
0.00404602
0.00330512
0.00255143
0.00178637
0.00101199
0.000226029
-0.000571386
-0.00137823
-0.00219289
-0.00301456
-0.00384008
-0.00466647
-0.00549016
-0.00630775
-0.00711426
-0.00790533
-0.00867543
-0.00941951
-0.0101313
-0.0108052
-0.0114347
-0.0120144
-0.012538
-0.0130004
-0.0133963
-0.0137221
-0.0139739
-0.0141496
-0.0142474
-0.0142678
-0.0142111
-0.0140788
-0.0138744
-0.0136024
-0.0132659
-0.01287
-0.0124217
-0.0119267
-0.0113878
-0.0108113
-0.0102049
-0.00957053
-0.00890822
-0.00822398
-0.0075224
-0.00679987
-0.0060555
-0.00529486
-0.00443261
-0.00363504
-0.00282438
-0.00199687
-0.00114945
-0.000288257
0.000584743
0.0014725
0.0023743
0.00329071
0.00420871
0.00513662
0.00608655
0.00702652
0.0079609
0.00891519
0.00984876
0.010752
0.0116608
0.012514
0.0132976
0.0140686
0.014749
0.0152993
0.0157958
0.0162218
0.016489
0.0166477
0.0167569
0.0167475
0.0166298
0.0164408
0.0161748
0.01586
0.0154657
0.0149967
0.0145248
0.0140118
0.0134232
0.0128311
0.0122399
0.0115995
0.010938
0.0102887
0.00962294
0.00893339
0.0082459
0.00755783
0.00685462
0.00614324
0.00543072
0.00470885
0.00397553
0.00323437
0.00248486
0.00172289
0.000950253
0.000167335
-0.000625523
-0.00142886
-0.00223943
-0.00305648
-0.00387678
-0.00469853
-0.0055168
-0.00632914
-0.00712993
-0.00791569
-0.00867985
-0.00941833
-0.010124
-0.0107922
-0.0114157
-0.0119896
-0.0125071
-0.0129638
-0.0133539
-0.0136743
-0.0139205
-0.014091
-0.0141843
-0.0142001
-0.0141387
-0.0140031
-0.013796
-0.0135205
-0.0131811
-0.0127843
-0.0123352
-0.0118372
-0.0112972
-0.0107227
-0.010116
-0.00947846
-0.00881726
-0.0081367
-0.00743391
-0.00670868
-0.00596783
-0.00521085
-0.00431006
-0.00351733
-0.0027083
-0.00187976
-0.00103823
-0.000184935
0.000683258
0.00156467
0.0024559
0.00335462
0.00426217
0.00518839
0.0061072
0.00702195
0.0079658
0.00889743
0.00979004
0.0107002
0.0116027
0.0124283
0.0132212
0.0139713
0.0146372
0.0152301
0.0157064
0.016082
0.0163983
0.0165774
0.0166354
0.016628
0.0165323
0.0163491
0.0160657
0.015726
0.0153645
0.0149104
0.0143889
0.0138806
0.0133312
0.0127126
0.0120961
0.0114818
0.0108241
0.0101503
0.00948767
0.00881076
0.00811462
0.00742038
0.00672482
0.00601561
0.0052996
0.00458068
0.00385254
0.00311291
0.00236579
0.00160896
0.000840808
6.17837e-05
-0.000725957
-0.00152356
-0.00232877
-0.00314016
-0.00395437
-0.00476997
-0.00558223
-0.00638834
-0.0071829
-0.00796234
-0.00872029
-0.00945231
-0.0101516
-0.0108131
-0.01143
-0.0119969
-0.0125073
-0.0129567
-0.0133395
-0.0136519
-0.0138904
-0.0140531
-0.0141385
-0.0141461
-0.0140775
-0.0139347
-0.0137202
-0.0134378
-0.0130933
-0.012691
-0.0122358
-0.0117335
-0.0111918
-0.0106132
-0.0100015
-0.00936312
-0.008703
-0.00801852
-0.00731207
-0.00658922
-0.00585001
-0.00508894
-0.00416908
-0.00337552
-0.00256296
-0.00173641
-0.000901618
-5.17841e-05
0.00081024
0.00167952
0.00255612
0.00343906
0.00433245
0.00523098
0.00612018
0.00702886
0.0079378
0.00882499
0.00972673
0.0106263
0.0114649
0.0123067
0.0131383
0.0138429
0.0144921
0.0151219
0.0156222
0.015968
0.0162659
0.0164805
0.0165371
0.0165154
0.0164046
0.0162149
0.0159657
0.0156019
0.0151946
0.0147824
0.0142741
0.0137104
0.0131651
0.0125801
0.0119372
0.0112995
0.0106616
0.00998925
0.00930562
0.00862977
0.00794278
0.00724162
0.00654096
0.00583789
0.00512432
0.00440364
0.0036788
0.0029448
0.00220051
0.00144724
0.000684923
-8.84232e-05
-0.000871206
-0.00166266
-0.00246128
-0.00326617
-0.00407396
-0.00488245
-0.00568779
-0.00648676
-0.00727428
-0.00804618
-0.00879676
-0.00952091
-0.0102124
-0.0108655
-0.0114738
-0.0120315
-0.0125328
-0.0129721
-0.0133448
-0.0136465
-0.0138746
-0.0140261
-0.0141005
-0.0140975
-0.0140188
-0.0138655
-0.0136416
-0.013351
-0.0129991
-0.0125888
-0.0121277
-0.0116215
-0.0110749
-0.0104905
-0.00987708
-0.00923784
-0.00857292
-0.00788373
-0.00717842
-0.0064548
-0.00570946
-0.00494528
-0.00401652
-0.00321427
-0.00240136
-0.00157815
-0.000742512
0.000106354
0.000957198
0.00181368
0.00267569
0.00354178
0.0044075
0.00526583
0.00613749
0.00701824
0.00786481
0.00872943
0.00962122
0.0104725
0.0112953
0.0121468
0.0129355
0.0136759
0.0143694
0.0149267
0.0154473
0.0158939
0.0161351
0.0163146
0.0164216
0.0164038
0.0162808
0.0160541
0.0158055
0.0154882
0.0150363
0.0145779
0.0141185
0.0135576
0.012956
0.0123783
0.0117609
0.0110956
0.0104387
0.00978156
0.00909545
0.00840273
0.00771684
0.00702132
0.00631513
0.00560965
0.00490106
0.00418296
0.00345874
0.00272921
0.00199058
0.0012419
0.000484839
-0.000281618
-0.00105766
-0.0018422
-0.00263343
-0.00343034
-0.00423035
-0.0050307
-0.00582789
-0.00661834
-0.00739753
-0.00816062
-0.00890244
-0.00961727
-0.0102994
-0.0109424
-0.0115405
-0.0120872
-0.0125772
-0.0130044
-0.0133649
-0.0136537
-0.0138688
-0.0140069
-0.0140686
-0.0140528
-0.0139618
-0.0137968
-0.0135631
-0.013263
-0.0129022
-0.0124852
-0.0120197
-0.0115078
-0.0109562
-0.0103701
-0.00975548
-0.00911065
-0.00844158
-0.00775255
-0.00704437
-0.00631153
-0.00556193
-0.00479797
-0.00385436
-0.00304778
-0.00223352
-0.00140375
-0.000564007
0.00027946
0.00112109
0.00196897
0.00281223
0.00365335
0.00448549
0.00531358
0.00614696
0.0069605
0.00777912
0.00862107
0.00942874
0.0102405
0.0111016
0.0119094
0.0126425
0.0134421
0.0141683
0.0147371
0.0152288
0.0157108
0.0160133
0.0161738
0.0162728
0.0162372
0.0161473
0.015943
0.0156038
0.0152904
0.0149089
0.0143885
0.0138763
0.0133679
0.0127654
0.0121324
0.0115199
0.0108753
0.0101929
0.00951844
0.00884347
0.00814826
0.00744814
0.00675354
0.00605207
0.00534307
0.00463338
0.00392087
0.00320019
0.00247317
0.00174005
0.00099845
0.000247197
-0.000512328
-0.00128038
-0.00205658
-0.00283984
-0.00362778
-0.00441886
-0.00520994
-0.00599813
-0.00677889
-0.00754865
-0.00830177
-0.00903376
-0.00973798
-0.0104095
-0.011041
-0.0116276
-0.0121616
-0.0126388
-0.0130522
-0.0133988
-0.0136729
-0.0138733
-0.0139966
-0.0140441
-0.014014
-0.0139101
-0.0137334
-0.0134894
-0.0131797
-0.012812
-0.0123896
-0.0119193
-0.0114031
-0.0108504
-0.0102628
-0.00964403
-0.00899548
-0.00832602
-0.00763182
-0.00691373
-0.00617468
-0.00542224
-0.00464778
-0.00369446
-0.00288136
-0.00205362
-0.00121357
-0.00037531
0.000463816
0.00130377
0.00214235
0.00296354
0.00377543
0.00457298
0.00536943
0.00613973
0.00689805
0.00769041
0.00845499
0.00919644
0.00999146
0.0108041
0.0115635
0.0123657
0.0131229
0.0137815
0.0145327
0.0150601
0.0154127
0.0158267
0.0160469
0.0161206
0.016079
0.0159482
0.0158062
0.0154802
0.0150566
0.0146921
0.0142348
0.0136545
0.0131023
0.0125431
0.0119026
0.0112435
0.010603
0.00993217
0.0092361
0.00854818
0.00785997
0.00715602
0.00645202
0.00575139
0.00504591
0.00433464
0.00362352
0.00290781
0.00218558
0.00145662
0.00072178
-2.22037e-05
-0.000774051
-0.00153427
-0.00230124
-0.00307549
-0.00385374
-0.00463529
-0.00541604
-0.00619426
-0.00696443
-0.00772385
-0.00846588
-0.00918698
-0.00987947
-0.0105392
-0.011158
-0.0117316
-0.0122517
-0.0127146
-0.0131128
-0.013444
-0.013702
-0.0138868
-0.0139943
-0.0140267
-0.0139823
-0.0138661
-0.0136779
-0.0134242
-0.0131071
-0.0127346
-0.0123076
-0.0118343
-0.0113176
-0.0107646
-0.0101734
-0.00955239
-0.00890279
-0.00822774
-0.00752231
-0.00679728
-0.00605211
-0.00528521
-0.00449426
-0.00353677
-0.00270335
-0.00186327
-0.00102125
-0.000180363
0.000665186
0.00150304
0.0023231
0.00312208
0.00390869
0.00467267
0.00542012
0.00613434
0.00685935
0.00756197
0.00825164
0.00899295
0.0097165
0.0103996
0.0111675
0.0120212
0.0127482
0.0134264
0.0141419
0.0148117
0.0152117
0.0155866
0.0158353
0.0159387
0.0159978
0.0157892
0.015549
0.0153549
0.0149335
0.0144267
0.0140003
0.0134811
0.0128552
0.012256
0.0116543
0.0109836
0.0103018
0.00963393
0.00894593
0.00823805
0.00753966
0.00684095
0.00613379
0.00542544
0.00472207
0.00401397
0.0033029
0.00258937
0.00187333
0.00114934
0.000420216
-0.000316536
-0.00105978
-0.001812
-0.00256961
-0.0033342
-0.00410206
-0.00487353
-0.00564325
-0.00641067
-0.0071694
-0.0079176
-0.00864763
-0.0093568
-0.0100366
-0.0106835
-0.0112884
-0.0118479
-0.0123528
-0.0128003
-0.0131822
-0.0134969
-0.0137382
-0.0139067
-0.0139982
-0.0140159
-0.0139581
-0.0138302
-0.0136319
-0.0133711
-0.0130486
-0.0126724
-0.0122432
-0.0117703
-0.0112533
-0.0106987
-0.0101061
-0.00948415
-0.00882823
-0.00814297
-0.00742974
-0.00669611
-0.00593303
-0.00514858
-0.00434861
-0.00337041
-0.00252283
-0.00167844
-0.000825817
2.75535e-05
0.000873924
0.00169784
0.00250162
0.00328921
0.00405081
0.00477037
0.00545758
0.00613749
0.00681577
0.00742625
0.0080834
0.00875315
0.00938191
0.0100346
0.0108077
0.0115
0.0122986
0.0132286
0.013687
0.0143844
0.0150675
0.0153441
0.0156339
0.0157344
0.0158078
0.0157475
0.0153894
0.0150932
0.0148056
0.0142875
0.0137348
0.013239
0.0126551
0.0119941
0.0113604
0.0107135
0.0100192
0.00931947
0.00863179
0.00792609
0.0072131
0.00650633
0.00580188
0.00509064
0.00438325
0.00367638
0.0029686
0.0022564
0.00154408
0.000825591
0.000102874
-0.000627524
-0.00136253
-0.00210606
-0.00285406
-0.00360895
-0.00436596
-0.00512656
-0.00588473
-0.00664069
-0.0073872
-0.00812324
-0.00884047
-0.00953677
-0.0102028
-0.0108358
-0.0114259
-0.0119702
-0.012459
-0.01289
-0.0132548
-0.0135526
-0.0137769
-0.013929
-0.014005
-0.0140091
-0.0139389
-0.013801
-0.0135951
-0.0133293
-0.0130032
-0.0126255
-0.0121967
-0.0117246
-0.0112069
-0.0106518
-0.0100585
-0.00943133
-0.00876615
-0.00807323
-0.00735033
-0.00659857
-0.00581726
-0.00502193
-0.0042062
-0.00320752
-0.00235419
-0.00149235
-0.000623218
0.000229724
0.00106704
0.00188426
0.00268538
0.00345249
0.00416736
0.004845
0.00550005
0.00613504
0.00672599
0.00731264
0.00790872
0.0084307
0.00904795
0.00972356
0.0104111
0.0110492
0.0118867
0.0128873
0.0135527
0.013993
0.0146733
0.0150811
0.015536
0.0156871
0.0155163
0.0155797
0.0154252
0.0149235
0.0145468
0.0141723
0.013585
0.0129729
0.0124168
0.0117811
0.0110883
0.0104175
0.00974089
0.00902448
0.00831084
0.00760554
0.00689222
0.00617185
0.00546222
0.00475265
0.0040427
0.00333282
0.00262762
0.00191816
0.00120825
0.000494032
-0.000222149
-0.000946179
-0.00167357
-0.00240839
-0.00314663
-0.00389157
-0.00463757
-0.00538683
-0.00613301
-0.00687684
-0.00761057
-0.00833367
-0.0090374
-0.00971991
-0.0103715
-0.0109896
-0.0115641
-0.0120922
-0.0125641
-0.012978
-0.0133254
-0.0136059
-0.0138134
-0.0139499
-0.0140115
-0.014003
-0.0139223
-0.0137766
-0.0135652
-0.0132958
-0.0129684
-0.0125912
-0.0121633
-0.0116913
-0.0111742
-0.0106189
-0.0100213
-0.00938658
-0.00871501
-0.00801244
-0.00727234
-0.00650368
-0.00571153
-0.00489829
-0.00405734
-0.00305992
-0.00218606
-0.00130623
-0.000440755
0.000409761
0.00125242
0.00206697
0.00284742
0.00357436
0.00426024
0.00492135
0.00552766
0.0060601
0.00656979
0.00716926
0.00769416
0.00815841
0.00864194
0.00926871
0.00997772
0.0109737
0.0118604
0.0123718
0.0135359
0.0138589
0.0142769
0.0149034
0.0152352
0.0156601
0.0155844
0.0153269
0.0152846
0.0149651
0.0144084
0.0139491
0.0134602
0.0128175
0.0121712
0.0115469
0.010866
0.0101491
0.00945133
0.00874229
0.00801462
0.00728878
0.00657295
0.00585028
0.00513109
0.00441651
0.00370705
0.0029956
0.00228913
0.00158151
0.000875039
0.000164215
-0.000546965
-0.00126441
-0.00198416
-0.00271074
-0.00343948
-0.00417403
-0.00490891
-0.00564661
-0.0063805
-0.00711157
-0.00783215
-0.00854174
-0.00923137
-0.00989936
-0.0105359
-0.0111383
-0.0116965
-0.0122078
-0.0126626
-0.013059
-0.013389
-0.0136525
-0.0138439
-0.0139656
-0.0140142
-0.0139946
-0.0139055
-0.0137535
-0.0135382
-0.0132668
-0.0129395
-0.0125629
-0.0121357
-0.0116644
-0.0111476
-0.0105893
-0.00998657
-0.00934644
-0.00866688
-0.00794973
-0.00719582
-0.00641647
-0.00560742
-0.00477067
-0.00391743
-0.00291195
-0.00202093
-0.00114511
-0.000279348
0.000584614
0.00142291
0.00221836
0.00297295
0.00367873
0.00435394
0.00495645
0.00546979
0.00594625
0.00641435
0.00685753
0.00733771
0.00794222
0.00818094
0.00820547
0.00851508
0.0090391
0.0108418
0.0124813
0.0128254
0.0136072
0.0143406
0.0151192
0.0149972
0.0152796
0.0157673
0.0154486
0.0150616
0.0148988
0.0144512
0.0138142
0.0132795
0.0127047
0.0120083
0.0113159
0.0106474
0.00992709
0.00918826
0.0084651
0.00773941
0.00699762
0.00626634
0.00554137
0.00481783
0.0040951
0.00338271
0.00267112
0.00196313
0.00125554
0.000551781
-0.000155597
-0.000862541
-0.00157393
-0.0022864
-0.00300481
-0.0037243
-0.00444851
-0.00517236
-0.00589826
-0.00661978
-0.00733792
-0.00804512
-0.0087408
-0.00941611
-0.0100692
-0.0106903
-0.0112767
-0.0118184
-0.0123127
-0.0127503
-0.0131293
-0.0134424
-0.0136897
-0.013866
-0.013974
-0.0140111
-0.013982
-0.0138859
-0.0137286
-0.0135106
-0.0132381
-0.012911
-0.0125344
-0.0121083
-0.0116372
-0.0111187
-0.0105564
-0.00995034
-0.00930357
-0.00861278
-0.00788422
-0.007122
-0.00632737
-0.00549835
-0.00465077
-0.00379075
-0.00276726
-0.00188282
-0.00100295
-0.000116427
0.00074149
0.00155366
0.00234331
0.00309214
0.00377793
0.00440087
0.0049276
0.0054117
0.00584739
0.0061534
0.00632431
0.00655819
0.00676533
0.00602162
0.00565215
0.00573737
0.00520004
0.00702331
0.00828197
0.00909104
0.0124199
0.0143521
0.0149077
0.0154587
0.0152507
0.0154641
0.0156532
0.0152404
0.0147775
0.0144049
0.0138412
0.0131755
0.0125524
0.0118936
0.0111608
0.0104365
0.00971732
0.00897264
0.00821734
0.00747661
0.00673312
0.00598932
0.00525137
0.00452384
0.00379759
0.00307903
0.00236457
0.00165645
0.000948864
0.000245735
-0.000458505
-0.00116105
-0.00186706
-0.00257307
-0.00328327
-0.00399373
-0.00470795
-0.00542104
-0.00613511
-0.00684446
-0.00754975
-0.0082437
-0.0089254
-0.00958652
-0.0102247
-0.0108305
-0.0114009
-0.0119264
-0.0124039
-0.0128248
-0.0131872
-0.0134843
-0.0137162
-0.0138788
-0.0139743
-0.0140011
-0.0139635
-0.0138612
-0.0136994
-0.013479
-0.0132049
-0.0128773
-0.0125005
-0.0120745
-0.0116016
-0.011081
-0.0105158
-0.00990506
-0.00924982
-0.00855144
-0.00781583
-0.00704158
-0.00623124
-0.00539492
-0.00454037
-0.00366075
-0.00264298
-0.00175281
-0.000852794
2.63338e-05
0.000861923
0.00167987
0.00246907
0.00318957
0.00384773
0.00441987
0.00491922
0.00538782
0.00567412
0.00578682
0.0056603
0.0053353
0.00494201
0.00428256
0.00389832
0.00365169
0.00339344
0.0039151
0.004008
0.00499002
0.00827796
0.012283
0.0141767
0.0154237
0.0158609
0.0155033
0.0155882
0.0154728
0.01489
0.0143525
0.0138543
0.0131789
0.0124485
0.0117723
0.011052
0.0102814
0.00952528
0.00877912
0.00801037
0.00724456
0.00649101
0.00574153
0.00499208
0.00425557
0.00352574
0.00280262
0.00208421
0.00137455
0.000667037
-3.56325e-05
-0.0007374
-0.00143625
-0.00213717
-0.00283704
-0.00353956
-0.00424163
-0.00494612
-0.00564888
-0.00635167
-0.00704937
-0.00774213
-0.00842338
-0.00909163
-0.00973905
-0.0103627
-0.0109539
-0.011509
-0.0120191
-0.0124806
-0.0128859
-0.0132327
-0.0135151
-0.013733
-0.013883
-0.0139672
-0.0139847
-0.0139391
-0.0138309
-0.0136647
-0.0134414
-0.0131648
-0.012836
-0.012458
-0.0120303
-0.0115549
-0.0110321
-0.0104631
-0.00984645
-0.00918507
-0.00848161
-0.00773676
-0.00695121
-0.00613471
-0.00529266
-0.00442216
-0.00353173
-0.00252262
-0.00161243
-0.000720305
0.000134262
0.000986603
0.00182191
0.00256842
0.00325262
0.00391395
0.00448025
0.0049479
0.00530583
0.00552091
0.00538289
0.00474932
0.00442292
0.00436494
0.00431963
0.00402953
0.0039409
0.00380125
0.00317691
0.00342105
0.00341369
0.00422148
0.00773814
0.0127442
0.0149538
0.0159023
0.0161493
0.0157689
0.0154908
0.0150982
0.0144682
0.0138248
0.0131853
0.0124476
0.0116822
0.0109368
0.0101732
0.00938288
0.00860336
0.00782976
0.00705334
0.00628
0.00552018
0.00476616
0.0040206
0.00328328
0.00255679
0.00183586
0.00112304
0.000414909
-0.000286767
-0.000986519
-0.00168264
-0.00237871
-0.00307282
-0.00376841
-0.00446282
-0.00515816
-0.00585135
-0.0065437
-0.00723061
-0.00791165
-0.00858113
-0.00923689
-0.00987161
-0.0104818
-0.0110596
-0.0116005
-0.0120964
-0.0125435
-0.0129347
-0.0132674
-0.0135365
-0.0137417
-0.0138804
-0.0139542
-0.0139629
-0.0139096
-0.0137955
-0.013624
-0.0133967
-0.0131168
-0.0127853
-0.0124042
-0.0119738
-0.0114956
-0.0109693
-0.0103953
-0.00977444
-0.00910898
-0.00839881
-0.00764579
-0.00685658
-0.00603557
-0.0051813
-0.00430298
-0.00341774
-0.00239292
-0.00149185
-0.000612824
0.00026315
0.00112327
0.00191323
0.00265054
0.00336881
0.00399755
0.00451847
0.00496537
0.00525533
0.00532399
0.00497061
0.00441042
0.00432234
0.00432161
0.00427691
0.00407839
0.0038835
0.00403344
0.00368259
0.00305248
0.00303234
0.00352666
0.00420107
0.00913068
0.014506
0.016199
0.0164508
0.0160864
0.0156433
0.015267
0.0146465
0.0138751
0.0131761
0.0124565
0.0116549
0.0108519
0.0100738
0.00927555
0.00846833
0.00767533
0.00689096
0.00610606
0.00533327
0.00457206
0.00382029
0.00307674
0.00234554
0.00162191
0.000906786
0.000197978
-0.000503482
-0.00120154
-0.00189495
-0.00258682
-0.00327615
-0.00396546
-0.00465288
-0.00534023
-0.00602505
-0.00670791
-0.00738522
-0.00805597
-0.008715
-0.00935957
-0.00998314
-0.0105816
-0.0111474
-0.0116759
-0.0121596
-0.012594
-0.012973
-0.0132934
-0.013551
-0.013745
-0.0138736
-0.0139379
-0.0139383
-0.0138775
-0.0137569
-0.0135796
-0.0133474
-0.0130629
-0.0127273
-0.012342
-0.011908
-0.0114258
-0.0108952
-0.0103169
-0.00969238
-0.00902169
-0.00830597
-0.00754966
-0.00675668
-0.00592748
-0.00506881
-0.00419285
-0.00330101
-0.002281
-0.00139126
-0.000496194
0.000392186
0.00121478
0.00199023
0.00278303
0.00349422
0.00403507
0.00453768
0.00502747
0.00535377
0.00511325
0.00448158
0.00437997
0.00436825
0.00423268
0.0042303
0.00429396
0.00394735
0.0036538
0.00381948
0.00365884
0.00334365
0.00314061
0.00312567
0.0062343
0.0132955
0.0167346
0.0165576
0.0164498
0.0159901
0.0153571
0.014747
0.0140264
0.0132201
0.0124288
0.0116422
0.0108206
0.00999422
0.0091815
0.00836993
0.00755672
0.00675576
0.00596554
0.00518444
0.00441317
0.00365566
0.00290864
0.00217258
0.00144571
0.00072919
1.98668e-05
-0.000681927
-0.00137851
-0.00206949
-0.00275796
-0.00344333
-0.00412726
-0.0048088
-0.00548946
-0.00616721
-0.00684208
-0.00751132
-0.00817343
-0.00882369
-0.0094589
-0.0100732
-0.0106618
-0.0112178
-0.011736
-0.0122096
-0.0126336
-0.0130024
-0.0133126
-0.0135606
-0.013745
-0.0138647
-0.0139206
-0.0139133
-0.0138451
-0.0137179
-0.0135344
-0.0132965
-0.0130064
-0.0126657
-0.0122757
-0.0118371
-0.0113501
-0.0108153
-0.0102335
-0.00960467
-0.00892942
-0.00821134
-0.00745275
-0.00665435
-0.00582163
-0.00496518
-0.00408596
-0.00318435
-0.00219128
-0.00128643
-0.000391007
0.000466923
0.0013012
0.0021244
0.00286895
0.00350876
0.00415681
0.00474987
0.00508764
0.00524385
0.00466089
0.00412918
0.00425631
0.00432731
0.00434401
0.00422222
0.00414973
0.00414913
0.00386664
0.00366628
0.003704
0.00359199
0.00320115
0.00360852
0.00425775
0.0106435
0.0169434
0.0166726
0.0167477
0.0163524
0.0155471
0.0148195
0.0141101
0.0132922
0.0124431
0.0116227
0.0107944
0.00994988
0.00911458
0.00829128
0.00746957
0.00665708
0.00585788
0.00507037
0.00429341
0.00353053
0.00277948
0.00204021
0.00131136
0.000593109
-0.000116992
-0.000818576
-0.00151389
-0.00220341
-0.00288921
-0.00357115
-0.004251
-0.0049282
-0.00560347
-0.00627559
-0.00694444
-0.00760742
-0.00826269
-0.00890618
-0.00953426
-0.0101413
-0.0107223
-0.0112708
-0.0117812
-0.012247
-0.0126631
-0.0130241
-0.0133264
-0.0135667
-0.0137437
-0.0138562
-0.013905
-0.013891
-0.0138162
-0.0136829
-0.0134933
-0.0132497
-0.0129542
-0.0126084
-0.0122134
-0.0117701
-0.0112788
-0.0107403
-0.0101544
-0.00952205
-0.00884463
-0.00812413
-0.00736175
-0.00656191
-0.00573041
-0.00487044
-0.00398593
-0.00309023
-0.00211863
-0.00120948
-0.000325258
0.000530626
0.00138676
0.00219894
0.00290504
0.00359745
0.00430956
0.00481134
0.00514807
0.00520831
0.00449899
0.00414484
0.00426077
0.0042442
0.00435668
0.00429791
0.00406494
0.0040921
0.00408336
0.00377455
0.00361937
0.00366214
0.00360724
0.00364693
0.00369862
0.00846088
0.0157263
0.0174857
0.0169086
0.0164082
0.0157792
0.0149693
0.0141347
0.0133208
0.0124826
0.0116197
0.0107671
0.0099232
0.00907677
0.008237
0.00740977
0.00659299
0.0057858
0.00499261
0.00421297
0.00344637
0.00269186
0.00195062
0.00122055
0.000500865
-0.000209726
-0.00091108
-0.00160563
-0.00229413
-0.00297803
-0.00365768
-0.00433476
-0.00500892
-0.00568053
-0.00634884
-0.00701353
-0.00767223
-0.00832286
-0.00896174
-0.00958496
-0.0101871
-0.0107629
-0.0113064
-0.0118115
-0.0122721
-0.0126828
-0.0130385
-0.0133354
-0.0135704
-0.0137421
-0.0138494
-0.0138929
-0.0138739
-0.0137941
-0.0136559
-0.0134614
-0.0132132
-0.0129132
-0.012563
-0.0121638
-0.0117167
-0.0112222
-0.0106804
-0.0100916
-0.00945715
-0.00877822
-0.00805553
-0.00729155
-0.00649216
-0.00566012
-0.00479729
-0.00391376
-0.00302185
-0.00207506
-0.00118091
-0.000290646
0.000589289
0.00141915
0.00220169
0.00297749
0.0036885
0.0042498
0.00483991
0.00551271
0.00539869
0.00458562
0.00408146
0.00420123
0.00431258
0.00425744
0.00426228
0.00427499
0.00405974
0.00391986
0.00391338
0.00376563
0.00360973
0.0037574
0.00359437
0.00345506
0.00798742
0.0147344
0.0178703
0.0172487
0.0164972
0.0158127
0.0150309
0.0141919
0.0133385
0.0124848
0.0116239
0.0107622
0.00990581
0.00905565
0.00821315
0.00738029
0.00655908
0.00574988
0.00495446
0.00417203
0.00340343
0.0026481
0.00190568
0.00117432
0.00045423
-0.000256207
-0.000957829
-0.00165218
-0.00233978
-0.0030227
-0.00370149
-0.00437708
-0.00504948
-0.00571938
-0.00638587
-0.00704829
-0.00770479
-0.00835322
-0.00898973
-0.00961041
-0.0102101
-0.0107834
-0.0113243
-0.0118268
-0.0122847
-0.0126927
-0.0130457
-0.0133399
-0.0135722
-0.0137411
-0.0138456
-0.0138865
-0.0138647
-0.0137821
-0.0136411
-0.013444
-0.0131932
-0.0128905
-0.0125379
-0.0121365
-0.0116873
-0.0111906
-0.0106471
-0.0100572
-0.00942156
-0.00874079
-0.00801761
-0.00725454
-0.00645366
-0.00561914
-0.0047594
-0.00387862
-0.0029793
-0.00207506
-0.00118091
-0.000290646
0.000589289
0.00141915
0.00220169
0.00297749
0.0036885
0.0042498
0.00483991
0.00551271
0.00539869
0.00458562
0.00408146
0.00420123
0.00431258
0.00425744
0.00426228
0.00427499
0.00405974
0.00391986
0.00391338
0.00376563
0.00360973
0.0037574
0.00359437
0.00345506
0.00798742
0.0147344
0.0178703
0.0172487
0.0164972
0.0158127
0.0150309
0.0141919
0.0133385
0.0124848
0.0116239
0.0107622
0.00990581
0.00905565
0.00821315
0.00738029
0.00655908
0.00574988
0.00495446
0.00417203
0.00340343
0.0026481
0.00190568
0.00117432
0.00045423
-0.000256207
-0.000957829
-0.00165218
-0.00233978
-0.0030227
-0.00370149
-0.00437708
-0.00504948
-0.00571938
-0.00638587
-0.00704829
-0.00770479
-0.00835322
-0.00898973
-0.00961041
-0.0102101
-0.0107834
-0.0113243
-0.0118268
-0.0122847
-0.0126927
-0.0130457
-0.0133399
-0.0135722
-0.0137411
-0.0138456
-0.0138865
-0.0138647
-0.0137821
-0.0136411
-0.013444
-0.0131932
-0.0128905
-0.0125379
-0.0121365
-0.0116873
-0.0111906
-0.0106471
-0.0100572
-0.00942156
-0.00874079
-0.00801761
-0.00725454
-0.00645366
-0.00561914
-0.0047594
-0.00387862
-0.0029793
-0.00211863
-0.00120948
-0.000325258
0.000530626
0.00138676
0.00219894
0.00290504
0.00359745
0.00430956
0.00481134
0.00514807
0.00520831
0.00449899
0.00414484
0.00426077
0.0042442
0.00435668
0.00429791
0.00406494
0.0040921
0.00408336
0.00377455
0.00361937
0.00366214
0.00360724
0.00364693
0.00369862
0.00846088
0.0157263
0.0174857
0.0169086
0.0164082
0.0157792
0.0149693
0.0141347
0.0133208
0.0124826
0.0116197
0.0107671
0.0099232
0.00907677
0.008237
0.00740977
0.00659299
0.0057858
0.00499261
0.00421297
0.00344637
0.00269186
0.00195062
0.00122055
0.000500865
-0.000209726
-0.00091108
-0.00160563
-0.00229413
-0.00297803
-0.00365768
-0.00433476
-0.00500892
-0.00568053
-0.00634884
-0.00701353
-0.00767223
-0.00832286
-0.00896174
-0.00958496
-0.0101871
-0.0107629
-0.0113064
-0.0118115
-0.0122721
-0.0126828
-0.0130385
-0.0133354
-0.0135704
-0.0137421
-0.0138494
-0.0138929
-0.0138739
-0.0137941
-0.0136559
-0.0134614
-0.0132132
-0.0129132
-0.012563
-0.0121638
-0.0117167
-0.0112222
-0.0106804
-0.0100916
-0.00945715
-0.00877822
-0.00805553
-0.00729155
-0.00649216
-0.00566012
-0.00479729
-0.00391376
-0.00302185
-0.00219128
-0.00128643
-0.000391007
0.000466923
0.0013012
0.0021244
0.00286895
0.00350876
0.00415681
0.00474987
0.00508764
0.00524385
0.00466089
0.00412918
0.00425631
0.00432731
0.00434401
0.00422222
0.00414973
0.00414913
0.00386664
0.00366628
0.003704
0.00359199
0.00320115
0.00360852
0.00425775
0.0106435
0.0169434
0.0166726
0.0167477
0.0163524
0.0155471
0.0148195
0.0141101
0.0132922
0.0124431
0.0116227
0.0107944
0.00994988
0.00911458
0.00829128
0.00746957
0.00665708
0.00585788
0.00507037
0.00429341
0.00353053
0.00277948
0.00204021
0.00131136
0.000593109
-0.000116992
-0.000818576
-0.00151389
-0.00220341
-0.00288921
-0.00357115
-0.004251
-0.0049282
-0.00560347
-0.00627559
-0.00694444
-0.00760742
-0.00826269
-0.00890618
-0.00953426
-0.0101413
-0.0107223
-0.0112708
-0.0117812
-0.012247
-0.0126631
-0.0130241
-0.0133264
-0.0135667
-0.0137437
-0.0138562
-0.013905
-0.013891
-0.0138162
-0.0136829
-0.0134933
-0.0132497
-0.0129542
-0.0126084
-0.0122134
-0.0117701
-0.0112788
-0.0107403
-0.0101544
-0.00952205
-0.00884463
-0.00812413
-0.00736175
-0.00656191
-0.00573041
-0.00487044
-0.00398593
-0.00309023
-0.002281
-0.00139126
-0.000496194
0.000392186
0.00121478
0.00199023
0.00278303
0.00349422
0.00403507
0.00453768
0.00502747
0.00535377
0.00511325
0.00448158
0.00437997
0.00436825
0.00423268
0.0042303
0.00429396
0.00394735
0.0036538
0.00381948
0.00365884
0.00334365
0.00314061
0.00312567
0.0062343
0.0132955
0.0167346
0.0165576
0.0164498
0.0159901
0.0153571
0.014747
0.0140264
0.0132201
0.0124288
0.0116422
0.0108206
0.00999422
0.0091815
0.00836993
0.00755672
0.00675576
0.00596554
0.00518444
0.00441317
0.00365566
0.00290864
0.00217258
0.00144571
0.00072919
1.98668e-05
-0.000681927
-0.00137851
-0.00206949
-0.00275796
-0.00344333
-0.00412726
-0.0048088
-0.00548946
-0.00616721
-0.00684208
-0.00751132
-0.00817343
-0.00882369
-0.0094589
-0.0100732
-0.0106618
-0.0112178
-0.011736
-0.0122096
-0.0126336
-0.0130024
-0.0133126
-0.0135606
-0.013745
-0.0138647
-0.0139206
-0.0139133
-0.0138451
-0.0137179
-0.0135344
-0.0132965
-0.0130064
-0.0126657
-0.0122757
-0.0118371
-0.0113501
-0.0108153
-0.0102335
-0.00960467
-0.00892942
-0.00821134
-0.00745275
-0.00665435
-0.00582163
-0.00496518
-0.00408596
-0.00318435
-0.00239292
-0.00149185
-0.000612824
0.00026315
0.00112327
0.00191323
0.00265054
0.00336881
0.00399755
0.00451847
0.00496537
0.00525533
0.00532399
0.00497061
0.00441042
0.00432234