# vtk DataFile Version 3.0
fluid_state
ASCII
DATASET RECTILINEAR_GRID
DIMENSIONS 100 40 1
X_COORDINATES 100 float
0.5 1.5 2.5 3.5 4.5 5.5 6.5 7.5 8.5 9.5 10.5 11.5 12.5 13.5 14.5 15.5 16.5 17.5 18.5 19.5 20.5 21.5 22.5 23.5 24.5 25.5 26.5 27.5 28.5 29.5 30.5 31.5 32.5 33.5 34.5 35.5 36.5 37.5 38.5 39.5 40.5 41.5 42.5 43.5 44.5 45.5 46.5 47.5 48.5 49.5 50.5 51.5 52.5 53.5 54.5 55.5 56.5 57.5 58.5 59.5 60.5 61.5 62.5 63.5 64.5 65.5 66.5 67.5 68.5 69.5 70.5 71.5 72.5 73.5 74.5 75.5 76.5 77.5 78.5 79.5 80.5 81.5 82.5 83.5 84.5 85.5 86.5 87.5 88.5 89.5 90.5 91.5 92.5 93.5 94.5 95.5 96.5 97.5 98.5 99.5 
Y_COORDINATES 40 float
0.5 1.5 2.5 3.5 4.5 5.5 6.5 7.5 8.5 9.5 10.5 11.5 12.5 13.5 14.5 15.5 16.5 17.5 18.5 19.5 20.5 21.5 22.5 23.5 24.5 25.5 26.5 27.5 28.5 29.5 30.5 31.5 32.5 33.5 34.5 35.5 36.5 37.5 38.5 39.5 
Z_COORDINATES 1 float
0
POINT_DATA 4000
SCALARS density_difference float 1
LOOKUP_TABLE default
0.000758432
0.000765874
0.000771778
0.000775486
0.000773953
0.000764722
0.000747566
0.000728512
0.000699951
0.000650232
0.000597939
0.000541375
0.000455104
0.000360786
0.000267139
0.00014961
2.6591e-05
-9.27278e-05
-0.000224176
-0.000346175
-0.000454711
-0.00057029
-0.000663317
-0.000732962
-0.000805965
-0.000857794
-0.000885138
-0.000914078
-0.000928993
-0.000925242
-0.000921466
-0.000913282
-0.000893923
-0.000869948
-0.000847219
-0.000822813
-0.000792246
-0.000760604
-0.000732438
-0.000702782
-0.000669602
-0.000638169
-0.000609155
-0.000578575
-0.000547037
-0.000517623
-0.000489212
-0.00045987
-0.000430871
-0.000403399
-0.000376179
-0.000348666
-0.000321855
-0.000295901
-0.000269942
-0.000244078
-0.000218815
-0.00019394
-0.000169042
-0.000144375
-0.000120071
-9.59125e-05
-7.17708e-05
-4.7834e-05
-2.4061e-05
-3.46055e-07
2.33378e-05
4.69017e-05
7.04075e-05
9.38709e-05
0.000117333
0.000140743
0.00016411
0.000187447
0.000210841
0.000234177
0.000257429
0.000280719
0.000304099
0.000327293
0.000350394
0.000373677
0.000396932
0.000419761
0.000442667
0.000465878
0.000488598
0.000510722
0.000533397
0.000556092
0.000577412
0.000598489
0.000620621
0.000641412
0.00066004
0.000679624
0.000699501
0.000715541
0.000729936
0.000745716
0.000749247
0.00075665
0.000761868
0.000763628
0.000759771
0.000746005
0.000729953
0.000712822
0.000672906
0.000620558
0.000579928
0.000514469
0.000417577
0.000334531
0.000246027
0.000122105
-2.41866e-06
-0.000109684
-0.000230911
-0.000359973
-0.000462485
-0.000561449
-0.000658296
-0.000723016
-0.000784403
-0.000844635
-0.000866799
-0.00088237
-0.000908695
-0.000909953
-0.000894361
-0.000886863
-0.000877701
-0.000854537
-0.000825892
-0.000803869
-0.000780859
-0.000749066
-0.00071731
-0.000691038
-0.000662422
-0.000629814
-0.000599526
-0.000571977
-0.000542404
-0.000511927
-0.000483584
-0.000456261
-0.000427801
-0.000399746
-0.000373048
-0.000346632
-0.000319781
-0.000293656
-0.000268209
-0.000242824
-0.000217391
-0.000192582
-0.000168015
-0.000143502
-0.000119076
-9.50648e-05
-7.10719e-05
-4.71725e-05
-2.33549e-05
2.26472e-07
2.38806e-05
4.74107e-05
7.09132e-05
9.42975e-05
0.000117774
0.000141103
0.000164469
0.000187784
0.000211156
0.000234361
0.00025768
0.000280959
0.000304192
0.000327271
0.000350559
0.000373698
0.000396636
0.000419535
0.000442687
0.00046536
0.000487723
0.000510315
0.000532925
0.000554456
0.000575849
0.000597719
0.000618705
0.000637967
0.000657698
0.000677431
0.000694536
0.000709817
0.000725755
0.000739533
0.000743296
0.000753376
0.000756757
0.000753474
0.000748771
0.000740494
0.000722723
0.000691066
0.000655786
0.000619795
0.000557029
0.000476955
0.000411319
0.000320169
0.00019939
9.75605e-05
-1.42099e-05
-0.000147786
-0.000261267
-0.000374324
-0.000491789
-0.00057666
-0.000661046
-0.000744507
-0.00078834
-0.000826645
-0.000870078
-0.000883901
-0.000885717
-0.000892715
-0.000889304
-0.000873295
-0.00085459
-0.000839083
-0.000817957
-0.000788913
-0.000762225
-0.000738728
-0.000709718
-0.000678275
-0.000650479
-0.000623352
-0.000592889
-0.000563051
-0.000535533
-0.00050766
-0.000478483
-0.000450707
-0.000423944
-0.000396807
-0.000369494
-0.000343389
-0.000317539
-0.000291597
-0.000265887
-0.00024096
-0.000215976
-0.000191139
-0.000166542
-0.000142385
-0.000118098
-9.40561e-05
-7.01236e-05
-4.64421e-05
-2.26334e-05
9.37942e-07
2.45206e-05
4.79278e-05
7.1465e-05
9.48077e-05
0.000118218
0.000141481
0.0001649
0.000188137
0.00021144
0.000234638
0.000258008
0.000281131
0.000304315
0.000327478
0.000350738
0.000373599
0.00039661
0.000419674
0.000442533
0.000464853
0.000487611
0.000510242
0.000532038
0.000553466
0.00057571
0.000596888
0.000616501
0.000636618
0.000657239
0.000674649
0.000690591
0.000708174
0.000723659
0.000733481
0.000744144
0.000749856
0.000752763
0.000753031
0.00074663
0.000735895
0.000717707
0.000684948
0.000652612
0.00061189
0.000538968
0.000466655
0.000399364
0.000290421
0.000170501
6.73325e-05
-5.08561e-05
-0.000191324
-0.000315302
-0.000418092
-0.000533972
-0.000631945
-0.000700598
-0.000775155
-0.000825032
-0.000845065
-0.000880253
-0.000901136
-0.000889189
-0.000885309
-0.000885352
-0.000870259
-0.000845107
-0.000824162
-0.000806511
-0.00078091
-0.000749866
-0.000724299
-0.000699686
-0.000669976
-0.000639552
-0.000612928
-0.000585587
-0.000556111
-0.000527512
-0.000500945
-0.000473457
-0.000445535
-0.000418625
-0.000392687
-0.000366083
-0.000339807
-0.000314223
-0.000289079
-0.000263566
-0.000238604
-0.00021396
-0.000189544
-0.00016496
-0.000140883
-0.000116847
-9.29909e-05
-6.90466e-05
-4.54823e-05
-2.1806e-05
1.68095e-06
2.52555e-05
4.85702e-05
7.20554e-05
9.53289e-05
0.000118729
0.00014195
0.000165331
0.000188484
0.000211823
0.000235007
0.000258281
0.00028134
0.000304654
0.000327735
0.000350803
0.000373745
0.000396951
0.000419687
0.000442359
0.000465085
0.000487853
0.000509751
0.000531759
0.000553924
0.000575412
0.000595681
0.000616555
0.000637074
0.000655569
0.000673045
0.000691462
0.000707449
0.000720113
0.000732656
0.000746346
0.000749952
0.000755639
0.000758597
0.000750406
0.000734862
0.000718034
0.000695364
0.000654138
0.000592401
0.000539457
0.000476443
0.000359007
0.000251493
0.000165925
1.65457e-05
-0.000131892
-0.00024117
-0.000379982
-0.000512094
-0.000605446
-0.000714186
-0.000787045
-0.000823068
-0.000883258
-0.000917708
-0.000906716
-0.000913906
-0.000922477
-0.000906623
-0.000881024
-0.000864556
-0.000850884
-0.000822601
-0.00079062
-0.000769653
-0.000746085
-0.00071386
-0.000684404
-0.000660474
-0.00063257
-0.000602026
-0.00057464
-0.00054901
-0.000520684
-0.000492563
-0.000466388
-0.000440452
-0.000413227
-0.000387051
-0.000361697
-0.000336255
-0.000310405
-0.000285554
-0.00026085
-0.000236166
-0.000211437
-0.000187408
-0.000163233
-0.000139234
-0.000115237
-9.1684e-05
-6.79035e-05
-4.43747e-05
-2.07802e-05
2.51625e-06
2.60499e-05
4.93232e-05
7.27283e-05
9.59021e-05
0.000119316
0.000142475
0.000165794
0.000188923
0.000212291
0.000235375
0.000258628
0.000281741
0.000305044
0.000327978
0.000351135
0.000374189
0.000397247
0.000419848
0.000442833
0.000465607
0.000487985
0.000509984
0.000532605
0.000554441
0.000575348
0.000596409
0.000617997
0.000637326
0.000655599
0.000675061
0.000693446
0.000707249
0.000721276
0.000736626
0.000749289
0.000760869
0.000765786
0.000761615
0.000759309
0.00075045
0.000726732
0.000700041
0.0006609
0.000600678
0.000542215
0.000457539
0.000339686
0.000236905
0.000111596
-4.90386e-05
-0.00019777
-0.000335754
-0.000478721
-0.000629516
-0.000729838
-0.000816304
-0.000901674
-0.000938093
-0.000959286
-0.000992037
-0.000979708
-0.000958938
-0.000954552
-0.000933737
-0.00090325
-0.000873608
-0.000848224
-0.000823746
-0.000791391
-0.000759882
-0.000734035
-0.000706959
-0.0006759
-0.00064736
-0.000621083
-0.000593573
-0.000564782
-0.000538111
-0.000511994
-0.000485194
-0.000458252
-0.00043282
-0.000407213
-0.000381451
-0.000355933
-0.000331353
-0.000306382
-0.000281636
-0.000257115
-0.000233128
-0.000208777
-0.000184824
-0.000160922
-0.000137345
-0.000113489
-9.00401e-05
-6.64758e-05
-4.3167e-05
-1.963e-05
3.56467e-06
2.69712e-05
5.01266e-05
7.35054e-05
9.66137e-05
0.000119958
0.000143037
0.000166372
0.000189473
0.000212772
0.000235814
0.000259162
0.000282233
0.00030543
0.000328442
0.000351769
0.000374649
0.000397636
0.000420583
0.000443667
0.000466026
0.000488671
0.000511355
0.000533606
0.000554949
0.000577058
0.000598761
0.000618979
0.000638696
0.000659623
0.000678319
0.000694497
0.000711698
0.000728879
0.000739908
0.000761361
0.000773806
0.00077683
0.000775788
0.000776944
0.00076828
0.0007445
0.000711521
0.00067412
0.000627152
0.000539336
0.000425859
0.000350535
0.000220326
1.04711e-05
-0.000114929
-0.000254663
-0.000476571
-0.000628525
-0.000751702
-0.000894998
-0.000963135
-0.00102823
-0.00110091
-0.00107737
-0.00105253
-0.00107559
-0.00104877
-0.000993103
-0.000955533
-0.000935984
-0.000903068
-0.000851973
-0.000818707
-0.000796106
-0.000760319
-0.000722013
-0.000695656
-0.000669452
-0.000637223
-0.00060722
-0.000582468
-0.000555564
-0.000527009
-0.000500766
-0.000476325
-0.000450034
-0.000424002
-0.000399333
-0.00037508
-0.000349761
-0.000325264
-0.000301262
-0.000277319
-0.00025289
-0.000229241
-0.00020557
-0.000181992
-0.00015819
-0.000134961
-0.000111488
-8.82076e-05
-6.47577e-05
-4.1707e-05
-1.83474e-05
4.75862e-06
2.80601e-05
5.10638e-05
7.43823e-05
9.74242e-05
0.000120693
0.000143717
0.000167046
0.000190076
0.000213356
0.000236429
0.000259768
0.000282768
0.000306057
0.000329158
0.000352414
0.000375296
0.000398557
0.00042156
0.000444499
0.00046712
0.000490243
0.000512783
0.000534976
0.000557144
0.00057976
0.000600983
0.000621756
0.00064311
0.000664064
0.000682178
0.000700537
0.000719859
0.000735826
0.000747459
0.000778877
0.000784342
0.000794251
0.000805877
0.000798113
0.000782343
0.00077615
0.000746995
0.000690709
0.000637242
0.000556047
0.000443989
0.000325073
0.000154557
-1.50365e-05
-0.000187065
-0.000404935
-0.000596766
-0.000781121
-0.000922698
-0.00107688
-0.00117231
-0.00118886
-0.00121449
-0.0012359
-0.00118697
-0.00115086
-0.00110972
-0.00105934
-0.00101539
-0.000958245
-0.000914382
-0.000877356
-0.000830852
-0.000788445
-0.000756544
-0.0007229
-0.000686795
-0.000655172
-0.000627621
-0.000598057
-0.000568761
-0.000542236
-0.000516831
-0.000489977
-0.000464335
-0.000439923
-0.000415504
-0.00039039
-0.000366505
-0.000342803
-0.000318977
-0.000294944
-0.000271777
-0.000248319
-0.000224946
-0.000201497
-0.000178571
-0.00015525
-0.000132181
-0.00010898
-8.61106e-05
-6.28785e-05
-3.99512e-05
-1.68023e-05
6.08021e-06
2.92853e-05
5.22021e-05
7.53892e-05
9.83158e-05
0.000121559
0.000144541
0.000167786
0.000190773
0.000214103
0.000237155
0.000260427
0.000283491
0.000306913
0.000329947
0.000353193
0.000376352
0.000399759
0.000422583
0.000445776
0.000468988
0.000492037
0.000514391
0.000537568
0.000560494
0.000582456
0.000604147
0.000627216
0.000648672
0.000668351
0.000689339
0.000711176
0.00072803
0.000743839
0.000763516
0.000794529
0.000807522
0.000822323
0.000829204
0.000825804
0.000821422
0.000810034
0.00077879
0.000730455
0.000658958
0.000578773
0.000482424
0.000284372
9.11588e-05
-5.96031e-06
-0.000287148
-0.000575007
-0.000698948
-0.000939394
-0.00115082
-0.00124191
-0.00137008
-0.00141072
-0.00132839
-0.00135626
-0.00134882
-0.00123222
-0.00116241
-0.00112194
-0.00107361
-0.000994979
-0.000927603
-0.00089204
-0.000847477
-0.00079138
-0.000750958
-0.000719394
-0.000681845
-0.000644357
-0.000615176
-0.000587144
-0.000556855
-0.000528509
-0.000503929
-0.00047849
-0.000452552
-0.000428132
-0.000405161
-0.000381098
-0.000357316
-0.000334291
-0.0003117
-0.000288307
-0.000265443
-0.00024274
-0.000220163
-0.000197088
-0.000174516
-0.000151768
-0.000129138
-0.000106173
-8.36068e-05
-6.07253e-05
-3.80217e-05
-1.5038e-05
7.63877e-06
3.06658e-05
5.34644e-05
7.6541e-05
9.93679e-05
0.000122538
0.000145445
0.000168648
0.000191635
0.000214932
0.000237942
0.000261284
0.000284417
0.000307794
0.000330886
0.000354369
0.000377589
0.000400954
0.00042411
0.000447705
0.000470853
0.000494077
0.000517283
0.00054084
0.000563589
0.000586505
0.000609666
0.000632698
0.000654402
0.000676699
0.00069927
0.000720344
0.000739546
0.000760224
0.000779795
0.00081545
0.000840334
0.000851598
0.000852761
0.000869256
0.000875735
0.000841768
0.000813892
0.000797434
0.000713485
0.000593913
0.000488631
0.000321264
0.000110005
-0.000142829
-0.000394255
-0.000545555
-0.000838508
-0.00113295
-0.00135688
-0.00142629
-0.00149884
-0.00158855
-0.00156936
-0.0014439
-0.00138309
-0.00132029
-0.00127631
-0.00117991
-0.00107621
-0.00103246
-0.000974869
-0.000896744
-0.000844022
-0.000805235
-0.000756485
-0.000708311
-0.000673301
-0.000640388
-0.000604073
-0.000571732
-0.000545195
-0.000517382
-0.000489318
-0.000464439
-0.000441277
-0.000416566
-0.000392789
-0.000370484
-0.000348254
-0.000325103
-0.000302951
-0.000281043
-0.000258927
-0.000236384
-0.000214525
-0.000192366
-0.00017016
-0.000147705
-0.000125653
-0.000103173
-8.08154e-05
-5.82139e-05
-3.58713e-05
-1.31248e-05
9.4212e-06
3.22456e-05
5.48516e-05
7.78258e-05
0.00010058
0.000123625
0.000146455
0.000169648
0.000192607
0.000215837
0.000238879
0.000262296
0.000285415
0.000308801
0.000332089
0.000355704
0.000378896
0.000402471
0.00042607
0.000449752
0.000472932
0.000496872
0.000520757
0.000544181
0.000567428
0.000592031
0.000615766
0.000638415
0.000662201
0.000687443
0.000709478
0.000730812
0.000755887
0.000779544
0.000795723
0.0008452
0.000865419
0.000883219
0.000902025
0.000913995
0.000910982
0.000905171
0.000890174
0.000839044
0.000768764
0.000672589
0.00050823
0.000363123
0.000168543
-0.000263733
-0.000454634
-0.000518107
-0.00092465
-0.00115459
-0.00142636
-0.00171814
-0.00174702
-0.00162796
-0.00167661
-0.00154398
-0.00144426
-0.00142083
-0.00132222
-0.00121881
-0.00111681
-0.00104967
-0.000990254
-0.000915504
-0.000853698
-0.000805776
-0.000756179
-0.000707312
-0.000666813
-0.000630545
-0.00059456
-0.000560726
-0.000531571
-0.000504097
-0.000476895
-0.000451026
-0.00042766
-0.000404518
-0.000381424
-0.000358993
-0.000337683
-0.000315918
-0.000294239
-0.00027276
-0.000251675
-0.000230012
-0.000208531
-0.000186943
-0.000165479
-0.000143526
-0.000121792
-9.97833e-05
-7.78603e-05
-5.55478e-05
-3.34466e-05
-1.10053e-05
1.13112e-05
3.39621e-05
5.6423e-05
7.92324e-05
0.000101869
0.000124826
0.000147613
0.000170724
0.000193631
0.000216883
0.000239965
0.000263328
0.000286497
0.000310061
0.00033341
0.000356999
0.00038049
0.000404403
0.000427978
0.000451851
0.000475812
0.000500077
0.000523863
0.000548244
0.000572846
0.000597371
0.000621489
0.000646748
0.000671942
0.000696479
0.000721156
0.000747307
0.000772184
0.000795796
0.000820314
0.000874791
0.0008938
0.000923454
0.00095442
0.000958425
0.000960555
0.000987891
0.000968919
0.000887901
0.000849132
0.000788814
0.000580218
0.000371252
0.000211569
-6.83253e-05
-0.000452052
-0.000862037
-0.000822625
-0.000959346
-0.00130638
-0.00133922
-0.00164811
-0.00174651
-0.00152624
-0.00160773
-0.00161452
-0.00151536
-0.00129403
-0.00122174
-0.00118861
-0.00106752
-0.000975344
-0.00093278
-0.00087375
-0.000801293
-0.000750475
-0.000710847
-0.000663189
-0.000617983
-0.000584937
-0.00055317
-0.000518764
-0.000489184
-0.000464967
-0.000439401
-0.000413806
-0.000391401
-0.000370445
-0.000348082
-0.000326472
-0.000306109
-0.000285701
-0.000264426
-0.000243825
-0.000223321
-0.000202531
-0.000181261
-0.000160395
-0.00013918
-0.000117823
-9.61406e-05
-7.46729e-05
-5.27734e-05
-3.08879e-05
-8.70784e-06
1.33314e-05
3.57717e-05
5.81113e-05
8.07447e-05
0.000103247
0.00012612
0.00014885
0.000171866
0.000194758
0.000218015
0.000241087
0.000264444
0.000287729
0.000311367
0.000334751
0.000358495
0.000382271
0.000406295
0.000430022
0.000454374
0.000478805
0.0005032
0.000527506
0.000552948
0.000578135
0.00060291
0.00062851
0.000655698
0.000681362
0.000706758
0.000735077
0.000764061
0.000788744
0.000815578
0.000847987
0.000901779
0.000936951
0.000966479
0.000990184
0.00102026
0.00104529
0.00104204
0.00103043
0.00103059
0.000963399
0.000816806
0.000712914
0.000540075
0.000246169
0.000183662
-0.000322179
-0.00111919
-0.000502849
-0.000447426
-0.00102658
-0.000535823
-0.000974363
-0.00120018
-0.00101232
-0.00157878
-0.0016939
-0.00144673
-0.00136276
-0.00125441
-0.00116063
-0.00107784
-0.00100555
-0.000935882
-0.000866256
-0.000807824
-0.000755554
-0.000703511
-0.000656591
-0.000614883
-0.000575791
-0.000540401
-0.000509018
-0.000478996
-0.000451213
-0.00042637
-0.000402923
-0.00037962
-0.000357945
-0.000337348
-0.000316827
-0.000296196
-0.000276403
-0.000256543
-0.000236481
-0.000216229
-0.000196268
-0.000175857
-0.000155325
-0.000134531
-0.000113794
-9.25841e-05
-7.13639e-05
-4.98322e-05
-2.83152e-05
-6.39625e-06
1.54709e-05
3.76659e-05
5.98107e-05
8.23035e-05
0.000104721
0.000127453
0.000150093
0.000173073
0.000195966
0.00021914
0.000242219
0.000265678
0.000289009
0.000312601
0.000336187
0.000360187
0.000383965
0.000408097
0.000432423
0.00045707
0.000481419
0.000506509
0.000531954
0.000557376
0.000582773
0.000609665
0.000636587
0.000663079
0.00069074
0.000720453
0.000748855
0.000777299
0.000808992
0.000841377
0.000870313
0.00093259
0.000975924
0.00100938
0.00103731
0.00108259
0.00111959
0.00111616
0.00112675
0.00115613
0.00107267
0.000931678
0.000882597
0.000732169
0.000399385
0.000130163
-0.00023687
-0.000586348
-0.00039321
-0.00027581
-0.000438052
-0.000471706
-0.000594688
-0.000477338
-0.000554082
-0.00106501
-0.00135025
-0.00136579
-0.00143189
-0.00128474
-0.00112603
-0.00108568
-0.0010235
-0.000928105
-0.000863088
-0.000817209
-0.000756438
-0.000694871
-0.000651549
-0.000612641
-0.000568141
-0.000528849
-0.000499274
-0.000470111
-0.000439794
-0.000413976
-0.000392068
-0.000369295
-0.000346833
-0.0003267
-0.000307463
-0.000287298
-0.000267618
-0.00024862
-0.000229461
-0.000209636
-0.000190104
-0.000170445
-0.000150477
-0.000130054
-0.000109743
-8.90465e-05
-6.81582e-05
-4.69198e-05
-2.57121e-05
-4.09868e-06
1.75801e-05
3.95667e-05
6.15321e-05
8.38655e-05
0.000106184
0.000128791
0.000151367
0.000174285
0.000197141
0.000220281
0.000243406
0.000266868
0.000290229
0.000313921
0.00033766
0.000361714
0.000385664
0.000410105
0.000434675
0.000459485
0.00048433
0.000510012
0.000535793
0.00056172
0.000588228
0.00061604
0.000643554
0.000671385
0.000701127
0.000732296
0.000762017
0.000793303
0.000828868
0.000863974
0.000895301
0.000966336
0.00100312
0.00105113
0.00110188
0.0011367
0.00117312
0.00122659
0.00124621
0.00121124
0.00121926
0.00123204
0.00100022
0.000737469
0.000492485
5.96264e-07
-0.000237625
-0.000346247
-0.000509765
-0.000551404
-0.000355225
-0.000470307
-0.000411344
-0.000360922
-0.00039892
-0.000572266
-0.000842669
-0.00120597
-0.00130044
-0.00122577
-0.00117781
-0.00109231
-0.000994508
-0.000931718
-0.000877417
-0.000807825
-0.000747972
-0.000700924
-0.000649629
-0.000599931
-0.000561688
-0.000526077
-0.000489065
-0.000457694
-0.000431917
-0.000405701
-0.000380384
-0.000358758
-0.000338557
-0.000317597
-0.000297738
-0.000279168
-0.000260426
-0.000241159
-0.000222473
-0.000203781
-0.000184652
-0.000165158
-0.00014581
-0.000126037
-0.00010596
-8.55655e-05
-6.51301e-05
-4.42402e-05
-2.32002e-05
-1.851e-06
1.95623e-05
4.13617e-05
6.32208e-05
8.53768e-05
0.000107559
0.000130083
0.000152623
0.000175433
0.000198246
0.000221413
0.000244557
0.000267951
0.000291407
0.000315256
0.00033901
0.000363083
0.000387402
0.000412084
0.000436597
0.000461775
0.000487429
0.000513189
0.000538999
0.000566276
0.000593902
0.000621229
0.000649814
0.000680815
0.000710985
0.000741273
0.000775657
0.000811918
0.000845084
0.000881837
0.000925671
0.00099381
0.00103781
0.00109066
0.00115029
0.00119758
0.00124014
0.00130703
0.00135652
0.00134729
0.00136133
0.00137996
0.00128158
0.000968666
0.000236198
-0.00032581
-0.000353028
-0.000442143
-0.000486318
-0.000436877
-0.000390965
-0.000465265
-0.000382506
-0.00035102
-0.000371609
-0.000395085
-0.000424459
-0.000741731
-0.00114571
-0.00126001
-0.00117134
-0.00104368
-0.000987972
-0.00094779
-0.000874009
-0.000798389
-0.000747099
-0.000700234
-0.000645209
-0.00059468
-0.000555599
-0.000519352
-0.000482328
-0.000449834
-0.000423043
-0.000397427
-0.000372377
-0.000350078
-0.000329989
-0.000309913
-0.00029027
-0.000271707
-0.000253577
-0.000235013
-0.000216579
-0.000198247
-0.000179716
-0.000160698
-0.000141625
-0.000122257
-0.0001026
-8.25197e-05
-6.23264e-05
-4.17495e-05
-2.09628e-05
1.76694e-07
2.1418e-05
4.30197e-05
6.47381e-05
8.67612e-05
0.000108856
0.000131273
0.000153742
0.000176497
0.000199308
0.000222423
0.000245561
0.000269007
0.000292528
0.000316358
0.000340231
0.000364504
0.000388905
0.000413653
0.000438569
0.000464073
0.000489781
0.000515966
0.00054264
0.000570192
0.000598055
0.000626749
0.000656581
0.00068766
0.000719193
0.000752355
0.000787858
0.000824883
0.000862227
0.000902996
0.000948403
0.00101544
0.00107644
0.00112742
0.00117866
0.00125365
0.00132556
0.00137058
0.00142792
0.0015103
0.00151717
0.00146249
0.00158858
0.00118411
3.6113e-05
-0.000483498
-0.000441761
-0.000399881
-0.000371102
-0.000414905
-0.000475104
-0.000371482
-0.000360486
-0.000419384
-0.000372334
-0.000263348
-0.000260667
-0.000472718
-0.000952166
-0.00118124
-0.00110451
-0.00105985
-0.00100855
-0.000920525
-0.000853611
-0.000812609
-0.000752822
-0.000684434
-0.000638315
-0.000599368
-0.000550898
-0.000507891
-0.000477502
-0.000447091
-0.000414731
-0.000388567
-0.000367014
-0.000344168
-0.000322009
-0.000303076
-0.000284891
-0.000265734
-0.000247373
-0.000229912
-0.000212012
-0.000193529
-0.000175368
-0.000157049
-0.000138198
-0.000118956
-9.96996e-05
-8.00018e-05
-5.99437e-05
-3.95641e-05
-1.90517e-05
1.88522e-06
2.30303e-05
4.4468e-05
6.60306e-05
8.79506e-05
0.000109993
0.0001323
0.000154698
0.000177428
0.000200233
0.000223277
0.000246428
0.000269941
0.000293474
0.000317275
0.000341317
0.000365743
0.000390119
0.000414995
0.00044036
0.000465985
0.00049165
0.000518474
0.000545903
0.00057326
0.000601485
0.00063195
0.000662368
0.000692763
0.000726529
0.000763003
0.000797462
0.000834469
0.000879085
0.000923408
0.000963961
0.001037
0.00109429
0.0011568
0.00122077
0.00129261
0.00137443
0.00144404
0.00150775
0.00160716
0.00166586
0.00165427
0.00171804
0.000707288
-0.000306523
-0.000334283
-0.000402374
-0.000411746
-0.000404527
-0.000414655
-0.000410478
-0.000367444
-0.000387231
-0.000355339
-0.000323455
-0.000288329
-0.000291203
-0.000302226
-0.000687663
-0.00110516
-0.00108381
-0.00106071
-0.000985016
-0.000913707
-0.000862029
-0.000804667
-0.000742747
-0.000687912
-0.000637967
-0.000590273
-0.000546864
-0.000507581
-0.000471748
-0.000439831
-0.000411152
-0.000384586
-0.000360439
-0.000338538
-0.000317912
-0.000298117
-0.000279425
-0.000261353
-0.000243451
-0.000225632
-0.00020802
-0.000190224
-0.0001722
-0.000153917
-0.000135455
-0.000116576
-9.74104e-05
-7.78852e-05
-5.81051e-05
-3.79149e-05
-1.74905e-05
3.28452e-06
2.42685e-05
4.55989e-05
6.70983e-05
8.89097e-05
0.000110864
0.000133119
0.0001555
0.00017816
0.000200925
0.000223991
0.000247165
0.000270614
0.000294191
0.000318121
0.000342166
0.000366549
0.000391183
0.000416262
0.000441508
0.000467316
0.000493619
0.000520466
0.000547716
0.000576048
0.000605161
0.000635004
0.000665994
0.000698874
0.000732733
0.00076808
0.000806114
0.000846679
0.000888776
0.000934529
0.000984332
0.0010524
0.00110469
0.00117674
0.00125695
0.00132103
0.00139389
0.00150058
0.00160324
0.00166811
0.00173325
0.00186801
0.00157688
0.000297441
-0.000408627
-0.000288681
-0.000370208
-0.000429623
-0.000419614
-0.000374072
-0.000359895
-0.000408705
-0.000392586
-0.000309005
-0.000308978
-0.00032229
-0.000258343
-0.000217802
-0.000500109
-0.000978732
-0.00110511
-0.0010173
-0.000953965
-0.000928876
-0.000870852
-0.000788095
-0.000734267
-0.000695159
-0.000637901
-0.000581251
-0.000543756
-0.000508776
-0.000467987
-0.000434016
-0.000408664
-0.000382495
-0.000356011
-0.000334366
-0.000315219
-0.000295029
-0.000275654
-0.000258242
-0.000240885
-0.000222814
-0.00020523
-0.000187934
-0.000170099
-0.000151788
-0.000133534
-0.000114945
-9.58644e-05
-7.64196e-05
-5.68217e-05
-3.6785e-05
-1.64185e-05
4.26095e-06
2.5129e-05
4.63791e-05
6.78394e-05
8.95774e-05
0.000111469
0.00013369
0.000156055
0.000178666
0.000201412
0.000224488
0.000247664
0.000271083
0.000294704
0.000318694
0.000342735
0.000367134
0.00039193
0.000417088
0.000442306
0.0004683
0.000494935
0.000521768
0.000549063
0.000578029
0.000607536
0.000637107
0.000668722
0.000703014
0.000736773
0.000771779
0.000812362
0.000854931
0.000895217
0.000942356
0.000999229
0.00105725
0.0011236
0.00118642
0.00125529
0.0013428
0.00143282
0.00151638
0.00161132
0.00171191
0.00185104
0.00200905
0.00144303
0.000341654
-0.00037297
-0.000427528
-0.000381095
-0.000358913
-0.0003869
-0.000406615
-0.000398083
-0.000365255
-0.000338733
-0.000357039
-0.000320578
-0.000280856
-0.000248184
-0.000197514
-0.000443289
-0.000842613
-0.00105005
-0.00102352
-0.00098304
-0.000909829
-0.000846938
-0.000802741
-0.000744608
-0.000680052
-0.000631924
-0.00059025
-0.000542883
-0.000500321
-0.000467768
-0.000436521
-0.000404978
-0.000378544
-0.000356094
-0.00033356
-0.000312049
-0.000293112
-0.000275029
-0.000256581
-0.00023879
-0.000221659
-0.000204269
-0.000186481
-0.000168817
-0.000150954
-0.000132634
-0.000113933
-9.50737e-05
-7.57917e-05
-5.61371e-05
-3.61347e-05
-1.59075e-05
4.72062e-06
2.56061e-05
4.68007e-05
6.81873e-05
8.99103e-05
0.000111812
0.000133985
0.000156306
0.000178936
0.0002017
0.000224715
0.000247882
0.000271384
0.000294993
0.000318886
0.000343039
0.000367579
0.000392217
0.000417339
0.000442947
0.000468942
0.000495178
0.000522442
0.0005504
0.000578686
0.000607938
0.000639145
0.000670863
0.000703263
0.000738648
0.000776644
0.000814351
0.000855178
0.000902351
0.000950684
0.000998952
0.00105725
0.0011236
0.00118642
0.00125529
0.0013428
0.00143282
0.00151638
0.00161132
0.00171191
0.00185104
0.00200905
0.00144303
0.000341654
-0.00037297
-0.000427528
-0.000381095
-0.000358913
-0.0003869
-0.000406615
-0.000398083
-0.000365255
-0.000338733
-0.000357039
-0.000320578
-0.000280856
-0.000248184
-0.000197514
-0.000443289
-0.000842613
-0.00105005
-0.00102352
-0.00098304
-0.000909829
-0.000846938
-0.000802741
-0.000744608
-0.000680052
-0.000631924
-0.00059025
-0.000542883
-0.000500321
-0.000467768
-0.000436521
-0.000404978
-0.000378544
-0.000356094
-0.00033356
-0.000312049
-0.000293112
-0.000275029
-0.000256581
-0.00023879
-0.000221659
-0.000204269
-0.000186481
-0.000168817
-0.000150954
-0.000132634
-0.000113933
-9.50737e-05
-7.57917e-05
-5.61371e-05
-3.61347e-05
-1.59075e-05
4.72062e-06
2.56061e-05
4.68007e-05
6.81873e-05
8.99103e-05
0.000111812
0.000133985
0.000156306
0.000178936
0.0002017
0.000224715
0.000247882
0.000271384
0.000294993
0.000318886
0.000343039
0.000367579
0.000392217
0.000417339
0.000442947
0.000468942
0.000495178
0.000522442
0.0005504
0.000578686
0.000607938
0.000639145
0.000670863
0.000703263
0.000738648
0.000776644
0.000814351
0.000855178
0.000902351
0.000950684
0.000998952
0.0010524
0.00110469
0.00117674
0.00125695
0.00132103
0.00139389
0.00150058
0.00160324
0.00166811
0.00173325
0.00186801
0.00157688
0.000297441
-0.000408627
-0.000288681
-0.000370208
-0.000429623
-0.000419614
-0.000374072
-0.000359895
-0.000408705
-0.000392586
-0.000309005
-0.000308978
-0.00032229
-0.000258343
-0.000217802
-0.000500109
-0.000978732
-0.00110511
-0.0010173
-0.000953965
-0.000928876
-0.000870852
-0.000788095
-0.000734267
-0.000695159
-0.000637901
-0.000581251
-0.000543756
-0.000508776
-0.000467987
-0.000434016
-0.000408664
-0.000382495
-0.000356011
-0.000334366
-0.000315219
-0.000295029
-0.000275654
-0.000258242
-0.000240885
-0.000222814
-0.00020523
-0.000187934
-0.000170099
-0.000151788
-0.000133534
-0.000114945
-9.58644e-05
-7.64196e-05
-5.68217e-05
-3.6785e-05
-1.64185e-05
4.26095e-06
2.5129e-05
4.63791e-05
6.78394e-05
8.95774e-05
0.000111469
0.00013369
0.000156055
0.000178666
0.000201412
0.000224488
0.000247664
0.000271083
0.000294704
0.000318694
0.000342735
0.000367134
0.00039193
0.000417088
0.000442306