# vtk DataFile Version 3.0
fluid_state
ASCII
DATASET RECTILINEAR_GRID
DIMENSIONS 100 40 1
X_COORDINATES 100 float
0.5 1.5 2.5 3.5 4.5 5.5 6.5 7.5 8.5 9.5 10.5 11.5 12.5 13.5 14.5 15.5 16.5 17.5 18.5 19.5 20.5 21.5 22.5 23.5 24.5 25.5 26.5 27.5 28.5 29.5 30.5 31.5 32.5 33.5 34.5 35.5 36.5 37.5 38.5 39.5 40.5 41.5 42.5 43.5 44.5 45.5 46.5 47.5 48.5 49.5 50.5 51.5 52.5 53.5 54.5 55.5 56.5 57.5 58.5 59.5 60.5 61.5 62.5 63.5 64.5 65.5 66.5 67.5 68.5 69.5 70.5 71.5 72.5 73.5 74.5 75.5 76.5 77.5 78.5 79.5 80.5 81.5 82.5 83.5 84.5 85.5 86.5 87.5 88.5 89.5 90.5 91.5 92.5 93.5 94.5 95.5 96.5 97.5 98.5 99.5 
Y_COORDINATES 40 float
0.5 1.5 2.5 3.5 4.5 5.5 6.5 7.5 8.5 9.5 10.5 11.5 12.5 13.5 14.5 15.5 16.5 17.5 18.5 19.5 20.5 21.5 22.5 23.5 24.5 25.5 26.5 27.5 28.5 29.5 30.5 31.5 32.5 33.5 34.5 35.5 36.5 37.5 38.5 39.5 
Z_COORDINATES 1 float
0
POINT_DATA 4000
SCALARS density_difference float 1
LOOKUP_TABLE default
0.000750007
0.000756929
0.000762338
0.000765575
0.000763651
0.00075407
0.000736629
0.000717329
0.000688618
0.000638855
0.000586573
0.000530068
0.000444044
0.000350021
0.000256722
0.000139668
1.71902e-05
-0.00010157
-0.000232356
-0.000353746
-0.000461669
-0.000576568
-0.000669004
-0.000738147
-0.000810574
-0.000861913
-0.000888832
-0.000917335
-0.000931837
-0.000927723
-0.000923563
-0.00091501
-0.000895291
-0.000870966
-0.000847859
-0.00082308
-0.000792145
-0.000760131
-0.000731565
-0.000701519
-0.000667947
-0.000636117
-0.00060669
-0.000575709
-0.000543768
-0.000513953
-0.000485136
-0.000455404
-0.000426017
-0.000398169
-0.000370576
-0.000342714
-0.000315561
-0.000289286
-0.00026302
-0.000236878
-0.00021135
-0.000186241
-0.000161128
-0.000136281
-0.000111819
-8.75389e-05
-6.33007e-05
-3.9307e-05
-1.55029e-05
8.20096e-06
3.18461e-05
5.53282e-05
7.87241e-05
0.000102034
0.000125313
0.000148497
0.00017161
0.000194649
0.00021772
0.000240689
0.00026355
0.000286409
0.000309335
0.000332038
0.00035463
0.000377368
0.000400062
0.000422301
0.000444605
0.000467185
0.000489269
0.000510737
0.000532749
0.000554765
0.000575415
0.000595809
0.000617259
0.000637368
0.000655338
0.000674251
0.000693474
0.000708886
0.000722679
0.000737848
0.000740884
0.000747729
0.000752475
0.000753777
0.000749546
0.000735406
0.000719107
0.00070171
0.000661696
0.000609286
0.000568658
0.000503274
0.000406687
0.00032387
0.000235725
0.000112271
-1.16491e-05
-0.000118444
-0.000239044
-0.000367451
-0.000469339
-0.000567761
-0.000663946
-0.000728193
-0.000789037
-0.000848785
-0.000870509
-0.000885713
-0.000911569
-0.000912484
-0.000896518
-0.000888682
-0.000879105
-0.000855612
-0.000826597
-0.000804219
-0.000780792
-0.000748654
-0.000716495
-0.000689841
-0.000660798
-0.00062782
-0.000597106
-0.000569164
-0.000539162
-0.000508307
-0.00047954
-0.000451838
-0.000422969
-0.000394557
-0.000367468
-0.000340714
-0.000313503
-0.000287075
-0.0002613
-0.00023565
-0.000209936
-0.000184909
-0.000160109
-0.000135432
-0.000110831
-8.67143e-05
-6.26073e-05
-3.8667e-05
-1.48019e-05
8.75284e-06
3.2385e-05
5.58175e-05
7.92264e-05
0.000102441
0.000125751
0.000148839
0.000171967
0.00019497
0.000218033
0.000240857
0.000263801
0.000286633
0.00030943
0.000332002
0.000354797
0.000377376
0.00039977
0.000422064
0.000444629
0.000466658
0.000488403
0.000510321
0.000532286
0.000553128
0.000573866
0.000595032
0.000615361
0.000633933
0.000653013
0.000672059
0.000688548
0.000703181
0.00071852
0.00073169
0.000734955
0.000744458
0.000747403
0.000743654
0.00073858
0.000729916
0.000711915
0.000680022
0.000644645
0.000608515
0.000545857
0.000465907
0.000400462
0.000309567
0.000189311
8.78506e-05
-2.33509e-05
-0.000156349
-0.000269203
-0.000381688
-0.000498438
-0.000582846
-0.0006666
-0.000749534
-0.000792879
-0.000830798
-0.000873709
-0.000887207
-0.000888604
-0.000895274
-0.000891446
-0.000875144
-0.00085604
-0.00084021
-0.000818675
-0.000789323
-0.000762213
-0.000738369
-0.000708934
-0.000677145
-0.000648905
-0.000621409
-0.000590504
-0.000560298
-0.00053233
-0.000504085
-0.000474471
-0.000446332
-0.000419139
-0.000391655
-0.000363938
-0.000337508
-0.000311278
-0.000285045
-0.000258994
-0.000233813
-0.000208531
-0.000183488
-0.000158644
-0.000134334
-0.000109857
-8.57217e-05
-6.16607e-05
-3.79498e-05
-1.40796e-05
9.45291e-06
3.30275e-05
5.63253e-05
7.97825e-05
0.000102943
0.000126201
0.000149211
0.000172405
0.000195317
0.000218325
0.00024113
0.000264138
0.000286803
0.000309563
0.000332207
0.000354986
0.000377276
0.000399756
0.000422201
0.000444487
0.000466152
0.000488303
0.000510248
0.000531415
0.000552142
0.000573739
0.000594206
0.000613178
0.000632587
0.000652566
0.00066929
0.000684627
0.000701536
0.000716444
0.000725665
0.000735793
0.00074096
0.000743433
0.000743189
0.000736452
0.000725351
0.000706916
0.000673912
0.000641504
0.000600662
0.000527884
0.000455659
0.000388604
0.000279987
0.000160598
5.78201e-05
-5.97703e-05
-0.000199614
-0.00032287
-0.000425186
-0.000540342
-0.000637758
-0.000705863
-0.000779965
-0.000829315
-0.000849047
-0.000883742
-0.000904312
-0.000891992
-0.000887837
-0.000887452
-0.00087208
-0.000846552
-0.000825325
-0.000807236
-0.000781339
-0.000749887
-0.000723994
-0.000698929
-0.000668889
-0.000638022
-0.000611042
-0.000583237
-0.000553409
-0.000524353
-0.000497422
-0.000469478
-0.000441208
-0.000413856
-0.000387577
-0.000360554
-0.000333965
-0.000307988
-0.00028256
-0.000256693
-0.000231488
-0.000206532
-0.000181919
-0.000157075
-0.000132854
-0.000108615
-8.46747e-05
-6.05909e-05
-3.7006e-05
-1.32565e-05
1.01826e-05
3.37599e-05
5.69563e-05
8.03722e-05
0.000103455
0.000126713
0.000149671
0.000172838
0.000195657
0.000218711
0.000241492
0.000264415
0.000287007
0.000309906
0.00033246
0.000355056
0.000377418
0.000400102
0.000422212
0.000444321
0.000466381
0.00048855
0.000509757
0.000531144
0.000552595
0.000573449
0.000593001
0.000613236
0.000633036
0.000650911
0.00066769
0.000685493
0.000700811
0.000712925
0.000724832
0.000737996
0.000741041
0.000746272
0.000748722
0.000740219
0.000724282
0.000707219
0.00068429
0.000643014
0.000581229
0.000528383
0.000465423
0.000348453
0.000241271
0.000156118
7.35169e-06
-0.000140318
-0.000249104
-0.000387103
-0.000518591
-0.000611307
-0.000719464
-0.000791757
-0.000827481
-0.000887116
-0.000921272
-0.000909948
-0.000916887
-0.000925052
-0.000908986
-0.000883039
-0.00086633
-0.000852246
-0.000823727
-0.000791354
-0.000770096
-0.000746096
-0.000713585
-0.000683689
-0.000659431
-0.000631067
-0.000600197
-0.000572343
-0.000546362
-0.000517567
-0.000489101
-0.000462458
-0.000436177
-0.0004085
-0.000381996
-0.000356207
-0.000330458
-0.000304205
-0.000279079
-0.000254006
-0.000229086
-0.000204033
-0.000179814
-0.000155367
-0.000131232
-0.000107021
-8.33904e-05
-5.94583e-05
-3.5917e-05
-1.22384e-05
1.10029e-05
3.45502e-05
5.76972e-05
8.10435e-05
0.000104019
0.000127301
0.000150189
0.000173304
0.000196091
0.000219184
0.000241857
0.000264769
0.000287406
0.000310303
0.000332703
0.000355396
0.000377862
0.000400407
0.000422373
0.000444802
0.000466903
0.000488692
0.00050999
0.000531996
0.000553111
0.000573394
0.000593725
0.00061468
0.000633288
0.000650945
0.000669691
0.000687475
0.000700609
0.000714075
0.000728772
0.000740924
0.000751884
0.000756368
0.000751734
0.00074907
0.000739775
0.000715902
0.000688964
0.000649745
0.000589487
0.000531186
0.000446665
0.000329286
0.00022684
0.00010217
-5.77935e-05
-0.0002057
-0.000343057
-0.000485212
-0.000635237
-0.000734888
-0.000820936
-0.000905675
-0.000941819
-0.000962633
-0.000995134
-0.000982515
-0.000961616
-0.000956879
-0.000935897
-0.000905094
-0.000875283
-0.000849517
-0.000824808
-0.000792082
-0.000760327
-0.00073405
-0.000706695
-0.000675205
-0.000646364
-0.000619622
-0.000591792
-0.000562534
-0.000535528
-0.00050893
-0.000481793
-0.000454379
-0.00042861
-0.000402538
-0.000376455
-0.000350493
-0.000325612
-0.000300224
-0.00027521
-0.00025031
-0.000226091
-0.000201406
-0.000177269
-0.000153083
-0.000129375
-0.000105295
-8.17741e-05
-5.80482e-05
-3.47323e-05
-1.11017e-05
1.20317e-05
3.54612e-05
5.84843e-05
8.18133e-05
0.000104717
0.000127938
0.00015074
0.000173879
0.000196632
0.000219663
0.000242288
0.000265301
0.00028789
0.00031069
0.00033316
0.000356031
0.000378316
0.000400798
0.000423101
0.000445636
0.000467316
0.000489379
0.000511351
0.000532995
0.000553612
0.000575098
0.000596061
0.000615659
0.000634645
0.000654949
0.000672926
0.000688523
0.000705028
0.000721636
0.000732034
0.000752907
0.000764741
0.000767354
0.000765791
0.000766572
0.000757524
0.000733567
0.00070031
0.000662892
0.000615871
0.000528301
0.000415132
0.000340169
0.000210453
1.65275e-06
-0.000123195
-0.000262091
-0.000482936
-0.000634011
-0.000756559
-0.000898998
-0.000966793
-0.00103136
-0.00110372
-0.00108001
-0.00105513
-0.00107783
-0.00105097
-0.000995118
-0.000957477
-0.000937594
-0.000904536
-0.000853157
-0.000819702
-0.00079671
-0.000760712
-0.000722021
-0.000695403
-0.000668761
-0.000636255
-0.000605807
-0.000580742
-0.000553365
-0.000524493
-0.000497772
-0.000472995
-0.000446226
-0.000419867
-0.000394726
-0.000370152
-0.000344383
-0.000319589
-0.000295161
-0.00027095
-0.000246134
-0.000222256
-0.000198239
-0.000174479
-0.000150386
-0.000127028
-0.00010332
-7.99712e-05
-5.63519e-05
-3.32962e-05
-9.83507e-06
1.32069e-05
3.65386e-05
5.94072e-05
8.26828e-05
0.000105517
0.000128668
0.000151413
0.000174551
0.00019723
0.000220249
0.000242901
0.00026591
0.000288424
0.000311321
0.000333875
0.000356681
0.000378963
0.000401723
0.000424077
0.000446473
0.000468408
0.00049095
0.000512775
0.000534365
0.000555797
0.000577792
0.000598273
0.000618424
0.000639032
0.000659369
0.00067676
0.000694524
0.000713134
0.000728546
0.00073953
0.000770321
0.000775211
0.000784666
0.000795704
0.000787639
0.000771513
0.000765027
0.000735615
0.000679447
0.00062592
0.000544962
0.000433266
0.000314947
0.000145155
-2.35123e-05
-0.000194703
-0.000411348
-0.000602207
-0.000785445
-0.000926397
-0.00107971
-0.00117471
-0.00119102
-0.00121656
-0.00123771
-0.0011889
-0.00115267
-0.00111157
-0.00106102
-0.00101704
-0.000959681
-0.000915707
-0.000878388
-0.000831743
-0.000788991
-0.000756891
-0.000722869
-0.000686533
-0.0006545
-0.000626679
-0.000596678
-0.000567091
-0.000540103
-0.000514381
-0.000487055
-0.000461087
-0.000436195
-0.000411447
-0.000385863
-0.000361659
-0.000337498
-0.000313374
-0.000288912
-0.000265474
-0.000241621
-0.000218017
-0.000194218
-0.000171108
-0.000147489
-0.000124289
-0.000100848
-7.79083e-05
-5.45009e-05
-3.15686e-05
-8.31271e-06
1.45058e-05
3.77461e-05
6.05271e-05
8.36759e-05
0.000106394
0.000129524
0.000152224
0.000175284
0.000197917
0.00022099
0.000243618
0.000266565
0.00028914
0.000312172
0.000334658
0.000357456
0.000380011
0.000402919
0.000425092
0.000447744
0.000470264
0.000492735
0.000514371
0.000536943
0.000559126
0.00058047
0.000601413
0.000623853
0.000644556
0.000663625
0.000683874
0.000705098
0.00072125
0.000736505
0.000755487
0.00078587
0.000798227
0.000812535
0.000818887
0.000815155
0.000810297
0.000798683
0.000767273
0.000718924
0.000647425
0.00056764
0.000471612
0.000274483
8.22105e-05
-1.41948e-05
-0.00029393
-0.000580167
-0.000703464
-0.000942487
-0.00115298
-0.00124351
-0.00137122
-0.00141168
-0.0013297
-0.0013574
-0.00135005
-0.00123359
-0.00116393
-0.00112331
-0.00107496
-0.000996204
-0.000928778
-0.000892911
-0.000848221
-0.000791834
-0.000751235
-0.000719307
-0.000681546
-0.000643683
-0.000614249
-0.000585793
-0.000555227
-0.000526441
-0.000501549
-0.000475644
-0.000449387
-0.000424495
-0.000401192
-0.000376658
-0.000352558
-0.000329074
-0.000306177
-0.000282352
-0.000259214
-0.000236111
-0.000213298
-0.000189868
-0.000167107
-0.000144056
-0.00012129
-9.80822e-05
-7.54409e-05
-5.23799e-05
-2.96677e-05
-6.57361e-06
1.60422e-05
3.91078e-05
6.17728e-05
8.4814e-05
0.000107434
0.000130494
0.000153121
0.00017614
0.000198773
0.000221815
0.000244402
0.00026742
0.000290064
0.000313053
0.000335595
0.000358631
0.000381246
0.000404113
0.000426616
0.000449667
0.000472123
0.000494768
0.00051725
0.0005402
0.000562204
0.000584498
0.0006069
0.000629301
0.00065025
0.00067192
0.000693738
0.000714206
0.000732686
0.000752775
0.000771653
0.00080665
0.000830842
0.000841634
0.000842288
0.000858334
0.000864313
0.000830258
0.000802145
0.000785515
0.000701753
0.000582759
0.000477802
0.000311375
0.000101249
-0.000150091
-0.000400079
-0.000550308
-0.000841819
-0.00113461
-0.00135752
-0.00142661
-0.00149912
-0.00158861
-0.00156966
-0.00144461
-0.00138412
-0.00132137
-0.00127747
-0.00118108
-0.00107747
-0.00103353
-0.000975869
-0.000897519
-0.000844675
-0.000805591
-0.00075667
-0.000708184
-0.00067297
-0.000639693
-0.000603145
-0.000570418
-0.000543603
-0.000515366
-0.000487006
-0.000461678
-0.000438191
-0.000413019
-0.000388913
-0.000366141
-0.000343582
-0.000319979
-0.000297516
-0.000275174
-0.000252775
-0.000229834
-0.000207728
-0.000185213
-0.000162809
-0.00014005
-0.000117854
-9.51292e-05
-7.26897e-05
-4.99075e-05
-2.75497e-05
-4.69165e-06
1.77987e-05
4.06622e-05
6.31397e-05
8.60788e-05
0.00010863
0.000131565
0.000154118
0.000177127
0.000199735
0.000222709
0.000245331
0.000268422
0.000291055
0.000314051
0.00033679
0.000359957
0.000382545
0.000405619
0.000428564
0.0004517
0.000474187
0.000497544
0.000520702
0.000543516
0.000566016
0.000589988
0.000612958
0.000634975
0.000657995
0.000682594
0.000703874
0.000724597
0.000748923
0.000771972
0.000787471
0.000836189
0.000855748
0.000873045
0.000891218
0.000902754
0.000899341
0.00089325
0.000877886
0.000826885
0.000756793
0.000660908
0.000497287
0.000353314
0.000159802
-0.000270058
-0.00045974
-0.000522582
-0.00092691
-0.00115553
-0.00142613
-0.00171689
-0.00174609
-0.00162767
-0.00167659
-0.00154435
-0.00144497
-0.00142158
-0.0013232
-0.00121989
-0.00111793
-0.00105059
-0.0009911
-0.000916168
-0.000854211
-0.000806016
-0.000756259
-0.000707108
-0.000666411
-0.000629815
-0.000593606
-0.000559419
-0.00053
-0.000502126
-0.000474631
-0.000448338
-0.000424649
-0.000401058
-0.000377633
-0.000354748
-0.000333102
-0.000310888
-0.000288891
-0.000266982
-0.000245602
-0.000223542
-0.000201805
-0.000179861
-0.000158187
-0.000135931
-0.000114043
-9.17894e-05
-6.9775e-05
-4.72823e-05
-2.51571e-05
-2.6048e-06
1.96641e-05
4.23532e-05
6.46927e-05
8.74657e-05
0.000109905
0.000132752
0.000155266
0.000178192
0.000200754
0.000223747
0.000246413
0.000269448
0.000292134
0.000315305
0.000338108
0.000361246
0.000384135
0.000407542
0.000430466
0.000453789
0.000477056
0.000500732
0.000523792
0.000547556
0.000571404
0.000595293
0.000618646
0.000643254
0.000667673
0.000691565
0.000715475
0.000740979
0.000765104
0.000788108
0.000811899
0.000865591
0.000883939
0.000913018
0.000943304
0.000946914
0.000948585
0.000975467
0.000956232
0.000875465
0.000836601
0.000776562
0.000569174
0.000361478
0.00020272
-7.50732e-05
-0.000456615
-0.000864461
-0.000824895
-0.000960353
-0.0013056
-0.00133842
-0.00164682
-0.00174553
-0.0015264
-0.00160797
-0.0016149
-0.00151599
-0.00129506
-0.00122276
-0.00118957
-0.0010684
-0.00097613
-0.000933337
-0.000874139
-0.000801457
-0.000750466
-0.000710556
-0.000662711
-0.000617227
-0.000583953
-0.000551851
-0.000517199
-0.000487256
-0.00046274
-0.000436771
-0.000410861
-0.000388027
-0.000366729
-0.000343926
-0.000321977
-0.000301173
-0.000280434
-0.000258737
-0.000237832
-0.000216932
-0.000195874
-0.000174252
-0.000153165
-0.000131647
-0.000110125
-8.82003e-05
-6.66299e-05
-4.45521e-05
-2.26327e-05
-3.44231e-07
2.16571e-05
4.41329e-05
6.63595e-05
8.89534e-05
0.000111267
0.000134025
0.00015649
0.000179317
0.00020187
0.000224865
0.000247526
0.000270552
0.000293358
0.000316599
0.000339441
0.000362729
0.000385906
0.00040942
0.000432498
0.000456293
0.000480031
0.000503832
0.000527411
0.000552227
0.00057666
0.00060079
0.00062562
0.000652144
0.000677029
0.000701768
0.000729306
0.000757624
0.000781552
0.000807753
0.000839399
0.000892394
0.000926813
0.000955738
0.000978814
0.00100835
0.00103277
0.00102923
0.00101737
0.00101727
0.00095013
0.000804496
0.000701253
0.000529331
0.000237377
0.000176116
-0.000326478
-0.00111879
-0.000504535
-0.000448927
-0.00102508
-0.000536185
-0.000973791
-0.00119921
-0.00101258
-0.00157853
-0.001694
-0.00144755
-0.00136372
-0.00125528
-0.00116151
-0.00107867
-0.0010062
-0.000936303
-0.000866531
-0.000807871
-0.000755409
-0.000703127
-0.000656018
-0.000614052
-0.00057475
-0.000539064
-0.000507431
-0.000477076
-0.000449009
-0.000423787
-0.000400021
-0.000376312
-0.000354297
-0.000333271
-0.000312404
-0.000291345
-0.000271212
-0.000250937
-0.000230559
-0.000209918
-0.000189677
-0.000168917
-0.000148152
-0.00012706
-0.000106145
-8.46952e-05
-6.33609e-05
-4.16542e-05
-2.00918e-05
1.93212e-06
2.37716e-05
4.59984e-05
6.80401e-05
9.04895e-05
0.000112727
0.000135341
0.000157723
0.00018051
0.000203071
0.000225979
0.000248654
0.000271775
0.000294634
0.000317824
0.000340875
0.000364411
0.000387595
0.000411211
0.000434891
0.000458974
0.000482634
0.000507121
0.000531838
0.000556626
0.000581272
0.000607503
0.000633649
0.000659471
0.000686349
0.000715375
0.00074299
0.000770764
0.00080167
0.000833377
0.000861562
0.000923003
0.000965549
0.00099838
0.00102564
0.00107029
0.00110664
0.0011029
0.00111305
0.00114208
0.00105889
0.000918647
0.000869806
0.000720781
0.000390338
0.000123557
-0.000239954
-0.000586655
-0.000393723
-0.000276507
-0.00043777
-0.000471333
-0.000594146
-0.000477257
-0.000554267
-0.00106485
-0.00135047
-0.00136655
-0.0014326
-0.00128563
-0.00112693
-0.0010864
-0.00102406
-0.000928485
-0.000863266
-0.000817134
-0.000756184
-0.00069442
-0.000650896
-0.000611734
-0.000567039
-0.00052749
-0.000497665
-0.000468186
-0.000437598
-0.000411428
-0.000389199
-0.000366036
-0.000343237
-0.000322691
-0.0003031
-0.000282518
-0.000262494
-0.000243088
-0.000223601
-0.000203396
-0.000183573
-0.00016357
-0.000143356
-0.00012264
-0.00010214
-8.12073e-05
-6.01935e-05
-3.87845e-05
-1.75204e-05
4.1939e-06
2.58552e-05
4.78691e-05
6.97412e-05
9.20266e-05
0.000114174
0.000136657
0.000158985
0.000181704
0.000204236
0.000227104
0.000249833
0.000272951
0.000295847
0.000319131
0.000342339
0.000365924
0.000389285
0.000413203
0.000437131
0.000461369
0.000485528
0.000510598
0.000535655
0.000560938
0.000586693
0.000613833
0.000640572
0.000667718
0.000696671
0.000727139
0.000756067
0.000786659
0.000821423
0.000855829
0.000886391
0.000956524
0.000992545
0.00103986
0.00108981
0.00112402
0.0011598
0.00121267
0.00123176
0.00119676
0.00120462
0.0012173
0.000986822
0.000726107
0.000483567
-3.65982e-06
-0.000239257
-0.000347006
-0.000509651
-0.000550787
-0.000355625
-0.00047024
-0.000411192
-0.000361131
-0.000399139
-0.00057219
-0.000842701
-0.00120648
-0.00130118
-0.00122673
-0.00117866
-0.00109292
-0.000994981
-0.000931982
-0.000877459
-0.000807666
-0.000747617
-0.000700344
-0.000648873
-0.000598969
-0.000560515
-0.000524654
-0.00048742
-0.000455763
-0.000429707
-0.000403159
-0.000377535
-0.000355536
-0.000334992
-0.000313637
-0.000293424
-0.000274446
-0.000255351
-0.000235688
-0.000216667
-0.0001976
-0.000178171
-0.000158339
-0.000138736
-0.000118673
-9.83966e-05
-7.77706e-05
-5.71989e-05
-3.61423e-05
-1.5036e-05
6.40973e-06
2.78156e-05
4.9638e-05
7.14129e-05
9.35162e-05
0.000115536
0.000137931
0.000160232
0.000182838
0.000205335
0.000228224
0.000250979
0.000274025
0.000297021
0.000320456
0.000343685
0.000367283
0.000391019
0.000415169
0.000439046
0.000463646
0.000488616
0.000513756
0.000538845
0.000565468
0.000592338
0.000618987
0.000646797
0.000677092
0.000706468
0.00073605
0.000769627
0.000805158
0.000837526
0.000873568
0.000916578
0.000983832
0.00102703
0.00107914
0.00113793
0.00118454
0.0012264
0.00129258
0.00134144
0.00133202
0.00134577
0.00136436
0.0012668
0.00095632
0.000229743
-0.000327357
-0.000353931
-0.000442229
-0.000486177
-0.000437056
-0.000391305
-0.000465237
-0.00038276
-0.000351294
-0.000371724
-0.000395171
-0.000424748
-0.000742471
-0.00114662
-0.00126082
-0.00117209
-0.00104436
-0.000988415
-0.00094795
-0.000873965
-0.000798168
-0.000746675
-0.00069958
-0.000644375
-0.000593658
-0.000554376
-0.000517889
-0.000480645
-0.000447885
-0.000420823
-0.000394888
-0.000369533
-0.000346878
-0.000326448
-0.000305987
-0.00028599
-0.00026703
-0.000248543
-0.000229589
-0.000210815
-0.000192114
-0.000173276
-0.000153925
-0.000134588
-0.000114935
-9.50705e-05
-7.4763e-05
-5.44249e-05
-3.36852e-05
-1.28236e-05
8.40844e-06
2.96506e-05
5.12712e-05
7.29135e-05
9.48795e-05
0.00011682
0.000139104
0.000161341
0.000183886
0.000206389
0.000229221
0.000251975
0.000275068
0.000298135
0.000321545
0.0003449
0.000368692
0.000392513
0.000416725
0.000441009
0.000465926
0.000490955
0.000516512
0.000542467
0.000569356
0.000596467
0.000624471
0.000653525
0.000683891
0.000714628
0.000747063
0.000781754
0.00081804
0.000854568
0.000894593
0.000939171
0.00100532
0.00106544
0.00111565
0.00116609
0.00124027
0.00131132
0.00135568
0.00141236
0.00149409
0.00150068
0.00144629
0.00157198
0.00117141
3.19536e-05
-0.000483898
-0.000442158
-0.00040034
-0.000371693
-0.00041531
-0.00047501
-0.000371745
-0.000360977
-0.000419579
-0.000372572
-0.000263855
-0.000261153
-0.000473388
-0.00095338
-0.0011823
-0.00110526
-0.00106037
-0.00100887
-0.000920697
-0.000853556
-0.000812266
-0.000752292
-0.000683748
-0.000637429
-0.00059826
-0.000549615
-0.000506402
-0.000475779
-0.000445105
-0.000412495
-0.000386027
-0.000364164
-0.000340974
-0.000318483
-0.000299173
-0.000280629
-0.000261086
-0.000242368
-0.000224522
-0.000206278
-0.000187433
-0.000168959
-0.000150311
-0.000131191
-0.000111669
-9.2197e-05
-7.2275e-05
-5.20654e-05
-3.15266e-05
-1.09321e-05
1.00942e-05
3.12469e-05
5.26999e-05
7.41933e-05
9.60528e-05
0.000117947
0.000140117
0.000162289
0.000184806
0.000207308
0.000230065
0.000252839
0.000275994
0.000299078
0.000322455
0.000345983
0.000369922
0.000393724
0.000418059
0.000442795
0.000467827
0.000492817
0.000519007
0.000545717
0.000572405
0.00059988
0.000629643
0.000659281
0.000688958
0.000721924
0.00075765
0.000791298
0.000827559
0.000871332
0.000914882
0.000954617
0.00102675
0.00108317
0.00114486
0.00120797
0.00127897
0.00135988
0.00142875
0.0014917
0.00159026
0.00164848
0.00163711
0.00170061
0.000697744
-0.000308189
-0.000335463
-0.000402972
-0.000412362
-0.000405016
-0.000414951
-0.000410845
-0.000367953
-0.000387531
-0.000355721
-0.000323999
-0.000288864
-0.000291663
-0.000302727
-0.000688445
-0.00110612
-0.00108462
-0.0010613
-0.000985376
-0.000913812
-0.000861915
-0.000804327
-0.000742195
-0.000687162
-0.000637036
-0.000589148
-0.000545546
-0.000506052
-0.000470004
-0.000437835
-0.000408897
-0.000382036
-0.000357589
-0.00033535
-0.000314388
-0.000294227
-0.000275179
-0.000256725
-0.000238464
-0.000220267
-0.000202308
-0.000184153
-0.000165814
-0.000147206
-0.00012847
-0.000109313
-8.99281e-05
-7.01816e-05
-5.02449e-05
-2.9898e-05
-9.38652e-06
1.14751e-05
3.2472e-05
5.3815e-05
7.52502e-05
9.6998e-05
0.000118809
0.000140925
0.000163084
0.000185528
0.000207994
0.00023077
0.000253571
0.000276658
0.000299792
0.000323293
0.000346828
0.000370721
0.000394784
0.000419315
0.000443937
0.000469149
0.000494778
0.000520985
0.00054752
0.000575176
0.000603538
0.000632675
0.000662888
0.000695035
0.000728093
0.000762692
0.000799904
0.000839698
0.000880962
0.000925933
0.000974879
0.00104206
0.00109349
0.00116468
0.00124394
0.00130721
0.00137918
0.00148493
0.00158664
0.00165084
0.00171542
0.00184944
0.00156068
0.000290737
-0.000409652
-0.000290078
-0.000371095
-0.000430189
-0.000420083
-0.000374603
-0.000360525
-0.00040909
-0.000392918
-0.000309607
-0.000309526
-0.000322756
-0.000259084
-0.000218455
-0.00050072
-0.00097959
-0.00110586
-0.00101796
-0.000954436
-0.000928951
-0.000870661
-0.000787754
-0.000733714
-0.000694359
-0.000636929
-0.000580114
-0.000542416
-0.000507213
-0.000466221
-0.000432011
-0.000406393
-0.000379932
-0.000353158
-0.00033118
-0.000311695
-0.000291143
-0.000271416
-0.000253625
-0.000235907
-0.000217462
-0.000199533
-0.000181879
-0.000163726
-0.000145093
-0.000126563
-0.000107698
-8.83948e-05
-6.8731e-05
-4.89731e-05
-2.87813e-05
-8.32451e-06
1.24397e-05
3.33242e-05
5.45852e-05
7.59845e-05
9.76571e-05
0.00011941
0.000141488
0.000163635
0.000186028
0.000208479
0.000231262
0.000254068
0.000277123
0.000300303
0.000323862
0.000347396
0.000371301
0.000395529
0.000420137
0.000444733
0.000470127
0.000496089
0.000522278
0.000548862
0.000577146
0.000605903
0.000634765
0.000665603
0.000699153
0.00073211
0.000766365
0.00080612
0.000847905
0.00088736
0.000933709
0.000989698
0.00104688
0.00111232
0.0011743
0.00124226
0.00132887
0.00141792
0.0015006
0.00159461
0.0016944
0.00183254
0.00198958
0.00142787
0.000335138
-0.000373957
-0.000428292
-0.000382055
-0.000359719
-0.000387554
-0.000407155
-0.000398522
-0.000365752
-0.000339353
-0.000357517
-0.000321116
-0.000281487
-0.000248786
-0.000198229
-0.000444305
-0.000843803
-0.00105123
-0.0010242
-0.000983342
-0.000909954
-0.000846826
-0.000802347
-0.000744008
-0.000679282
-0.000630957
-0.000589076
-0.000541529
-0.000498768
-0.000465992
-0.000434497
-0.000402706
-0.000375984
-0.000353233
-0.00033037
-0.000308529
-0.000289231
-0.000270792
-0.00025197
-0.00023382
-0.000216315
-0.000198577
-0.000180435
-0.000162452
-0.000144267
-0.000125669
-0.000106694
-8.76109e-05
-6.81103e-05
-4.82945e-05
-2.81381e-05
-7.81869e-06
1.28934e-05
3.37968e-05
5.50012e-05
7.63288e-05
9.79853e-05
0.000119749
0.000141779
0.000163884
0.000186294
0.000208765
0.000231485
0.000254284
0.000277421
0.00030059
0.000324051
0.000347699
0.000371743
0.000395815
0.000420386
0.000445371
0.000470764
0.000496331
0.000522949
0.000550194
0.000577798
0.000606302
0.000636794
0.000667732
0.000699397
0.000733978
0.000771207
0.000808093
0.000848145
0.000894463
0.000941993
0.000989408
0.00104688
0.00111232
0.0011743
0.00124226
0.00132887
0.00141792
0.0015006
0.00159461
0.0016944
0.00183254
0.00198958
0.00142787
0.000335138
-0.000373957
-0.000428292
-0.000382055
-0.000359719
-0.000387554
-0.000407155
-0.000398522
-0.000365752
-0.000339353
-0.000357517
-0.000321116
-0.000281487
-0.000248786
-0.000198229
-0.000444305
-0.000843803
-0.00105123
-0.0010242
-0.000983342
-0.000909954
-0.000846826
-0.000802347
-0.000744008
-0.000679282
-0.000630957
-0.000589076
-0.000541529
-0.000498768
-0.000465992
-0.000434497
-0.000402706
-0.000375984
-0.000353233
-0.00033037
-0.000308529
-0.000289231
-0.000270792
-0.00025197
-0.00023382
-0.000216315
-0.000198577
-0.000180435
-0.000162452
-0.000144267
-0.000125669
-0.000106694
-8.76109e-05
-6.81103e-05
-4.82945e-05
-2.81381e-05
-7.81869e-06
1.28934e-05
3.37968e-05
5.50012e-05
7.63288e-05
9.79853e-05
0.000119749
0.000141779
0.000163884
0.000186294
0.000208765
0.000231485
0.000254284
0.000277421
0.00030059
0.000324051
0.000347699
0.000371743
0.000395815
0.000420386
0.000445371
0.000470764
0.000496331
0.000522949
0.000550194
0.000577798
0.000606302
0.000636794
0.000667732
0.000699397
0.000733978
0.000771207
0.000808093
0.000848145
0.000894463
0.000941993
0.000989408
0.00104206
0.00109349
0.00116468
0.00124394
0.00130721
0.00137918
0.00148493
0.00158664
0.00165084
0.00171542
0.00184944
0.00156068
0.000290737
-0.000409652
-0.000290078
-0.000371095
-0.000430189
-0.000420083
-0.000374603
-0.000360525
-0.00040909
-0.000392918
-0.000309607
-0.000309526
-0.000322756
-0.000259084
-0.000218455
-0.00050072
-0.00097959
-0.00110586
-0.00101796
-0.000954436
-0.000928951
-0.000870661
-0.000787754
-0.000733714
-0.000694359
-0.000636929
-0.000580114
-0.000542416
-0.000507213
-0.000466221
-0.000432011
-0.000406393
-0.000379932
-0.000353158
-0.00033118
-0.000311695
-0.000291143
-0.000271416
-0.000253625
-0.000235907
-0.000217462
-0.000199533
-0.000181879
-0.000163726
-0.000145093
-0.000126563
-0.000107698
-8.83948e-05
-6.8731e-05
-4.89731e-05
-2.87813e-05
-8.32451e-06
1.24397e-05
3.33242e-05
5.45852e-05
7.59845e-05
9.76571e-05
0.00011941
0.000141488
0.000163635
0.000186028
0.000208479
0.000231262
0.000254068
0.000277123
0.000300303
0.000323862
0.000347396
0.000371301
0.000395529
0.000420137
0.000444733
0.000470127