# vtk DataFile Version 3.0
fluid_state
ASCII
DATASET RECTILINEAR_GRID
DIMENSIONS 100 40 1
X_COORDINATES 100 float
0.5 1.5 2.5 3.5 4.5 5.5 6.5 7.5 8.5 9.5 10.5 11.5 12.5 13.5 14.5 15.5 16.5 17.5 18.5 19.5 20.5 21.5 22.5 23.5 24.5 25.5 26.5 27.5 28.5 29.5 30.5 31.5 32.5 33.5 34.5 35.5 36.5 37.5 38.5 39.5 40.5 41.5 42.5 43.5 44.5 45.5 46.5 47.5 48.5 49.5 50.5 51.5 52.5 53.5 54.5 55.5 56.5 57.5 58.5 59.5 60.5 61.5 62.5 63.5 64.5 65.5 66.5 67.5 68.5 69.5 70.5 71.5 72.5 73.5 74.5 75.5 76.5 77.5 78.5 79.5 80.5 81.5 82.5 83.5 84.5 85.5 86.5 87.5 88.5 89.5 90.5 91.5 92.5 93.5 94.5 95.5 96.5 97.5 98.5 99.5 
Y_COORDINATES 40 float
0.5 1.5 2.5 3.5 4.5 5.5 6.5 7.5 8.5 9.5 10.5 11.5 12.5 13.5 14.5 15.5 16.5 17.5 18.5 19.5 20.5 21.5 22.5 23.5 24.5 25.5 26.5 27.5 28.5 29.5 30.5 31.5 32.5 33.5 34.5 35.5 36.5 37.5 38.5 39.5 
Z_COORDINATES 1 float
0
POINT_DATA 4000
SCALARS density_difference float 1
LOOKUP_TABLE default
0.000260012
0.000218962
0.000176663
0.000133697
9.03034e-05
4.26558e-05
-1.0258e-05
-6.14185e-05
-0.000115864
-0.000184296
-0.000252602
-0.000319773
-0.000404868
-0.000494292
-0.000579509
-0.000677907
-0.000778145
-0.00087217
-0.000971493
-0.00106272
-0.00114038
-0.00121971
-0.00128208
-0.00132434
-0.00136579
-0.00139063
-0.00139414
-0.00139645
-0.00138718
-0.00136092
-0.00133116
-0.00129707
-0.00125335
-0.00120215
-0.00114927
-0.00109542
-0.00103446
-0.000969078
-0.000905927
-0.000841228
-0.000771092
-0.000700877
-0.000632616
-0.000562226
-0.000489728
-0.000418831
-0.000348872
-0.000277906
-0.00020725
-0.000138522
-7.06603e-05
-3.31996e-06
6.23637e-05
0.000125943
0.000188075
0.000248444
0.000306428
0.000362006
0.00041542
0.000466264
0.000514318
0.000559625
0.000602214
0.00064181
0.000678395
0.000711975
0.000742539
0.000769957
0.000794275
0.000815475
0.000833601
0.000848599
0.000860517
0.000869377
0.00087529
0.000878196
0.000878163
0.000875316
0.000869775
0.000861413
0.000850425
0.000837047
0.000821271
0.000802946
0.000782553
0.0007603
0.000735894
0.000709399
0.000681669
0.000652494
0.000621341
0.000588922
0.000556165
0.00052195
0.000486066
0.000450094
0.000414102
0.000376212
0.000337383
0.000299053
0.000255992
0.000213575
0.00017068
0.000128253
8.29454e-05
3.01757e-05
-2.04413e-05
-6.8846e-05
-0.000132961
-0.000204065
-0.000262029
-0.000335366
-0.000429445
-0.000510276
-0.000590654
-0.000694344
-0.000794655
-0.000880249
-0.000973096
-0.00106736
-0.00114035
-0.00120968
-0.00127369
-0.00131174
-0.00134485
-0.00137667
-0.00137686
-0.00136875
-0.00136762
-0.00134641
-0.00130872
-0.00127441
-0.00123779
-0.00118936
-0.00113246
-0.00107886
-0.0010244
-0.000960759
-0.000893976
-0.000831304
-0.000765923
-0.000695363
-0.000625346
-0.000557586
-0.000487343
-0.000415649
-0.000345505
-0.000276551
-0.000206608
-0.000137445
-7.00471e-05
-3.88837e-06
6.17149e-05
0.000125334
0.000186958
0.000246759
0.000304828
0.000360252
0.000413345
0.00046397
0.000512112
0.00055724
0.000599712
0.000639241
0.000675892
0.000709349
0.000739936
0.00076733
0.000791713
0.000812867
0.000831084
0.000846054
0.000858072
0.000866954
0.000872966
0.000875835
0.000875982
0.000873185
0.000867699
0.000859338
0.000848635
0.000835243
0.00081946
0.000801265
0.000781215
0.000758738
0.00073434
0.000708188
0.000680648
0.000650934
0.000620002
0.00058805
0.000554978
0.000520013
0.000484713
0.000448884
0.000411912
0.000373346
0.000334988
0.000296101
0.00025324
0.000212706
0.000170216
0.000123658
7.63761e-05
2.90342e-05
-2.16738e-05
-8.22806e-05
-0.000143173
-0.000200824
-0.000274531
-0.000359659
-0.000430849
-0.00051592
-0.000619481
-0.00070796
-0.000798168
-0.000901987
-0.000988923
-0.00107162
-0.00115554
-0.00121468
-0.00126844
-0.00132154
-0.00134303
-0.00135679
-0.00137352
-0.0013668
-0.00134634
-0.00132837
-0.00130184
-0.00126305
-0.00121739
-0.00117432
-0.00112596
-0.00106735
-0.00100805
-0.000952005
-0.000889034
-0.000821491
-0.000756149
-0.000691139
-0.000621311
-0.000551208
-0.000482738
-0.00041373
-0.000342849
-0.000273453
-0.000205083
-0.00013689
-6.89497e-05
-3.13574e-06
6.15451e-05
0.000124917
0.000186748
0.000246082
0.000303754
0.000359145
0.000412259
0.000462544
0.000510587
0.000555712
0.000598159
0.0006375
0.000674187
0.000707633
0.000738216
0.000765526
0.000790002
0.000811142
0.000829386
0.000844338
0.000856485
0.000865347
0.000871412
0.00087433
0.000874627
0.00087178
0.00086639
0.000858161
0.000847581
0.000834081
0.000818506
0.000800512
0.000780441
0.000757832
0.000733858
0.00070785
0.000679999
0.000650292
0.000620065
0.000587881
0.000554148
0.000519652
0.000485177
0.000448273
0.00041049
0.000373122
0.00033525
0.000294183
0.000255395
0.000213333
0.000170483
0.000124817
7.76297e-05
3.02381e-05
-2.25839e-05
-8.46463e-05
-0.000140877
-0.000201685
-0.000284482
-0.000363298
-0.000433267
-0.000531604
-0.00063516
-0.000722471
-0.000817233
-0.000925612
-0.00101794
-0.00109536
-0.00117777
-0.00124444
-0.00128846
-0.00133576
-0.00136236
-0.00136347
-0.00137382
-0.00137346
-0.00134459
-0.00131907
-0.00129385
-0.00125704
-0.0012091
-0.00116074
-0.00111402
-0.0010607
-0.000998698
-0.000939543
-0.000880599
-0.000816019
-0.00074813
-0.000683041
-0.000616442
-0.000547118
-0.000477358
-0.000409472
-0.000340321
-0.000270871
-0.000202212
-0.000135148
-6.78809e-05
-1.92198e-06
6.25872e-05
0.000125215
0.000186896
0.000246257
0.000303677
0.000358693
0.000411839
0.00046206
0.000509937
0.000554915
0.000597424
0.000636683
0.000673314
0.000706714
0.000737349
0.00076461
0.000789105
0.000810225
0.000828528
0.000843482
0.000855672
0.000864519
0.000870689
0.000873642
0.00087396
0.000871133
0.000865926
0.000857702
0.000847106
0.000833743
0.0008184
0.000800278
0.000780231
0.000757966
0.000734117
0.000707781
0.000680215
0.000651024
0.000620516
0.000587955
0.000555059
0.000520886
0.000485481
0.000448692
0.000412284
0.00037433
0.000335251
0.000295359
0.00026026
0.00021642
0.000174305
0.000132084
8.50643e-05
3.21265e-05
-1.97209e-05
-7.15878e-05
-0.000134757
-0.00021238
-0.000278848
-0.000348999
-0.000455291
-0.000553084
-0.000629994
-0.000748111
-0.000864681
-0.000950739
-0.00105242
-0.00115012
-0.00121595
-0.00129129
-0.00134078
-0.00135859
-0.00139256
-0.00140917
-0.00138585
-0.00137381
-0.00136223
-0.001331
-0.00128635
-0.00124685
-0.00121008
-0.00115883
-0.00109916
-0.00104915
-0.000995673
-0.000931699
-0.000867622
-0.000808508
-0.000743785
-0.000675247
-0.000608296
-0.000542728
-0.000473402
-0.000404071
-0.000335987
-0.000268408
-0.000199441
-0.000132141
-6.58921e-05
-6.72164e-07
6.41327e-05
0.000126526
0.000187594
0.000246735
0.000304294
0.000359009
0.00041189
0.000462071
0.000509982
0.000554743
0.00059719
0.000636449
0.00067308
0.000706362
0.000737031
0.000764292
0.000788788
0.00080987
0.000828249
0.000843195
0.000855405
0.000864279
0.000870541
0.000873471
0.000873849
0.000871118
0.000865986
0.000857722
0.000847278
0.000834066
0.000818725
0.000800589
0.000780856
0.000758724
0.00073475
0.000708557
0.000681513
0.000652273
0.000621538
0.00058951
0.000557277
0.000522637
0.000487112
0.000451533
0.000415658
0.000376638
0.000337954
0.00030009
0.000265601
0.000226368
0.000184676
0.000139044
9.47712e-05
4.5948e-05
-7.75161e-06
-6.22319e-05
-0.000126186
-0.000200802
-0.000268303
-0.000354537
-0.00046174
-0.000553186
-0.000655566
-0.000782967
-0.000897575
-0.00100173
-0.00110861
-0.00121665
-0.00128807
-0.00135029
-0.00140797
-0.00142899
-0.00143522
-0.0014513
-0.0014301
-0.00139977
-0.00137808
-0.00134273
-0.00129869
-0.00125073
-0.00120198
-0.00115577
-0.00109935
-0.00103968
-0.000983545
-0.0009262
-0.000861691
-0.000797875
-0.000734862
-0.000669979
-0.00060176
-0.000535065
-0.000467914
-0.000399976
-0.000331032
-0.000263851
-0.000196313
-0.000129346
-6.28033e-05
1.7047e-06
6.58436e-05
0.000128217
0.000189245
0.000247843
0.000305192
0.000359906
0.000412654
0.000462537
0.00051043
0.000555156
0.000597508
0.000636638
0.000673303
0.000706548
0.000737186
0.000764401
0.000788946
0.000810018
0.000828406
0.000843339
0.000855627
0.000864523
0.000870798
0.000873753
0.000874266
0.000871551
0.000866422
0.000858282
0.000848026
0.000834755
0.000819467
0.000801646
0.000782055
0.00075974
0.000736074
0.000710408
0.000683228
0.000653821
0.00062399
0.000592458
0.000559561
0.000525342
0.000491572
0.000455739
0.000418827
0.000381938
0.000345378
0.00030548
0.00027628
0.000238826
0.000197204
0.000152074
0.000109994
6.48553e-05
1.07418e-05
-5.12458e-05
-0.000110371
-0.000172113
-0.000263425
-0.000369576
-0.000441691
-0.000550358
-0.000712958
-0.000814687
-0.000919062
-0.00108049
-0.00119479
-0.00128362
-0.0013874
-0.00143706
-0.0014786
-0.00153299
-0.00151053
-0.00148145
-0.00148923
-0.00145832
-0.00140007
-0.00135105
-0.00131559
-0.00126982
-0.00120156
-0.0011461
-0.00109989
-0.00103961
-0.000972464
-0.000915528
-0.000856844
-0.000790756
-0.00072425
-0.000662045
-0.000596058
-0.000527883
-0.000460501
-0.000394712
-0.000326387
-0.000258642
-0.000191774
-0.000126048
-5.9569e-05
4.96453e-06
6.84353e-05
0.000130227
0.000191309
0.000249721
0.000306644
0.000361136
0.00041392
0.0004636
0.000511294
0.000555956
0.000598313
0.000637304
0.000673917
0.000707151
0.000737786
0.000764938
0.000789509
0.000810581
0.000828979
0.000843921
0.000856266
0.00086516
0.000871483
0.000874511
0.000875079
0.00087237
0.000867367
0.000859347
0.000849112
0.000835908
0.000820876
0.000803168
0.00078357
0.000761506
0.000738237
0.000712596
0.000685494
0.000656691
0.000627319
0.000595695
0.000563247
0.000530115
0.000496698
0.00046081
0.000425155
0.000389811
0.000353337
0.00031383
0.000291538
0.000250204
0.000212715
0.000176182
0.000130177
8.04005e-05
3.64605e-05
-2.04196e-05
-8.93042e-05
-0.000157855
-0.000244081
-0.000344063
-0.000444989
-0.000581863
-0.000713674
-0.000842269
-0.0010016
-0.00114407
-0.001275
-0.00138107
-0.00149484
-0.00156599
-0.00157916
-0.00159781
-0.00161341
-0.00157146
-0.00153638
-0.00149348
-0.00144213
-0.00139383
-0.00132577
-0.00126983
-0.00121904
-0.00115379
-0.00108848
-0.00103355
-0.000973325
-0.000907734
-0.000844232
-0.000783729
-0.00071842
-0.000652131
-0.000586753
-0.000521834
-0.000453961
-0.000387057
-0.000320407
-0.000254047
-0.000186635
-0.000121116
-5.58844e-05
8.22967e-06
7.19073e-05
0.000133176
0.000193618
0.00025195
0.000308841
0.000362916
0.000415457
0.000465122
0.000512717
0.000557145
0.000599445
0.000638423
0.000674964
0.000708099
0.000738749
0.000765899
0.000790443
0.00081149
0.00082994
0.000844902
0.000857246
0.000866165
0.000872584
0.000875641
0.000876217
0.000873614
0.000868756
0.000860734
0.000850554
0.000837612
0.000822725
0.000804951
0.000785613
0.000764023
0.000740751
0.00071508
0.000688749
0.000660525
0.000630807
0.000599643
0.000568825
0.000535886
0.000501825
0.000467964
0.000434741
0.000398144
0.000361766
0.00032753
0.000306077
0.000269146
0.000234658
0.000197337
0.000154646
0.000109957
6.50874e-05
1.14914e-05
-5.5863e-05
-0.000138147
-0.000214216
-0.000301631
-0.000461575
-0.000608614
-0.000682914
-0.000884494
-0.00109379
-0.00119035
-0.0013573
-0.00151668
-0.00158643
-0.00168513
-0.00172951
-0.00166691
-0.00169028
-0.0016867
-0.00159096
-0.00152799
-0.00148224
-0.00143328
-0.00135328
-0.00127442
-0.00122341
-0.00116478
-0.00108923
-0.00102529
-0.000968157
-0.000903676
-0.000835518
-0.000773629
-0.000710624
-0.000644275
-0.000577496
-0.00051342
-0.000447054
-0.000380026
-0.000313304
-0.000248096
-0.000181506
-0.000115952
-5.11043e-05
1.21517e-05
7.54705e-05
0.000136667
0.000196682
0.00025453
0.00031129
0.000365234
0.000417472
0.000466921
0.000514467
0.000558775
0.00060092
0.000639825
0.000676346
0.000709411
0.000740016
0.000767154
0.000791697
0.000812737
0.000831203
0.000846172
0.00085855
0.000867522
0.000873973
0.000877055
0.000877732
0.000875223
0.000870385
0.000862457
0.000852486
0.00083963
0.000824772
0.000807284
0.000788255
0.000766685
0.000743612
0.000718566
0.000692534
0.000664318
0.000635331
0.000605162
0.000574453
0.000541923
0.000509592
0.000476811
0.00044355
0.000408724
0.000375262
0.0003415
0.000323042
0.000294414
0.00025858
0.000217398
0.000187461
0.000152163
9.41201e-05
4.04592e-05
-4.6553e-06
-8.81605e-05
-0.000191005
-0.000287396
-0.000416924
-0.000569983
-0.000753024
-0.000933312
-0.00104355
-0.00125223
-0.00146606
-0.00163542
-0.00169769
-0.00176463
-0.00184577
-0.00184313
-0.00175053
-0.00170738
-0.00165407
-0.0016176
-0.00152787
-0.001426
-0.00137902
-0.00131396
-0.00122255
-0.00115533
-0.00109873
-0.00102876
-0.000956283
-0.000895083
-0.00083267
-0.00076505
-0.000698705
-0.000636385
-0.000570622
-0.000503737
-0.000438104
-0.000373593
-0.000306629
-0.000240684
-0.000175521
-0.0001111
-4.59679e-05
1.70954e-05
7.9376e-05
0.000140186
0.000200269
0.000257719
0.000313931
0.000367775
0.000419942
0.000469086
0.000516405
0.000560691
0.000602743
0.000641487
0.000677942
0.00071101
0.000741554
0.000768637
0.000793191
0.000814253
0.000832696
0.000847678
0.000860114
0.000869121
0.000875576
0.000878739
0.000879518
0.000877037
0.000872248
0.000864512
0.000854665
0.000841819
0.000827155
0.000810025
0.000791071
0.000769561
0.000747045
0.000722507
0.000696395
0.00066859
0.00064083
0.000611092
0.000580173
0.000549155
0.000518912
0.000485888
0.000452892
0.000422123
0.000390946
0.000355194
0.000345184
0.000314323
0.000283641
0.000253212
0.000220928
0.000182216
0.000141775
9.48881e-05
3.32094e-05
-3.74795e-05
-0.000131561
-0.000261101
-0.000360141
-0.000504604
-0.000811008
-0.000945698
-0.000998559
-0.0012793
-0.00145654
-0.00165999
-0.0018963
-0.00194716
-0.00186504
-0.00193165
-0.00182979
-0.00175254
-0.00173284
-0.0016497
-0.00156423
-0.00146235
-0.00138525
-0.00132218
-0.00123891
-0.00116039
-0.00109418
-0.00102616
-0.000954538
-0.000888185
-0.00082362
-0.000757631
-0.000690767
-0.000626526
-0.000561639
-0.000495983
-0.000429784
-0.000365175
-0.000299656
-0.000234283
-0.000168935
-0.000105125
-4.10114e-05
2.18668e-05
8.39978e-05
0.000144186
0.000203749
0.000261122
0.000317071
0.000370516
0.000422465
0.000471542
0.000518643
0.000562743
0.000604711
0.000643404
0.000679739
0.000712748
0.000743266
0.000770338
0.000794853
0.000815914
0.000834371
0.000849391
0.000861828
0.000870863
0.000877389
0.000880627
0.000881411
0.000879018
0.00087439
0.000866723
0.000856895
0.000844303
0.000829885
0.000812756
0.000793983
0.000773043
0.000750735
0.00072617
0.000700781
0.000673888
0.000646064
0.000616712
0.0005876
0.000557458
0.000526873
0.000495849
0.000465951
0.000435076
0.000404405
0.00037426
0.000367416
0.000335633
0.000312737
0.000291574
0.000254729
0.000218127
0.000200838
0.00015594
7.35115e-05
2.00152e-05
-3.97801e-05
-0.000187326
-0.000339679
-0.000457398
-0.000636986
-0.000905107
-0.00121442
-0.00119898
-0.0012534
-0.0014695
-0.00151091
-0.00180912
-0.00195067
-0.00180105
-0.00188247
-0.00189676
-0.00182281
-0.0016256
-0.00155784
-0.00152783
-0.00140468
-0.00130374
-0.00124931
-0.00117676
-0.001088
-0.00101772
-0.000955531
-0.000884111
-0.000812316
-0.00074949
-0.000685281
-0.000617197
-0.000551138
-0.000488408
-0.000422777
-0.000356505
-0.0002918
-0.000228177
-0.000162841
-9.86902e-05
-3.56282e-05
2.64335e-05
8.85794e-05
0.00014858
0.000207404
0.000264464
0.000320348
0.000373523
0.00042507
0.000474047
0.000521049
0.000564959
0.00060675
0.000645425
0.000681678
0.0007146
0.000745065
0.000772153
0.000796623
0.000817676
0.000836147
0.000851201
0.000863629
0.000872719
0.000879302
0.00088258
0.0008834
0.000881136
0.000876591
0.000868972
0.000859281
0.00084692
0.000832587
0.000815573
0.000797158
0.000776558
0.000754323
0.000730127
0.000705497
0.000679001
0.000651317
0.000623006
0.000595251
0.000565416
0.00053538
0.000506887
0.000479013
0.000448018
0.000419449
0.00039482
0.00038733
0.000366294
0.000342797
0.00031769
0.000298962
0.000276776
0.000240237
0.00020274
0.00017329
0.000102673
-4.44138e-06
-8.23772e-05
-0.000215794
-0.000404551
-0.000427141
-0.00075387
-0.00127027
-0.000797519
-0.000711682
-0.00108248
-0.000724235
-0.00111486
-0.00133794
-0.00125337
-0.00180226
-0.0019533
-0.00176685
-0.00170272
-0.00158589
-0.00149573
-0.00141625
-0.00133171
-0.00124813
-0.00116657
-0.00109165
-0.00101974
-0.000946818
-0.000876811
-0.000808902
-0.000741542
-0.000674979
-0.000610097
-0.000544285
-0.000478983
-0.000414372
-0.000350126
-0.000284847
-0.000220668
-0.000156841
-9.34848e-05
-3.00944e-05
3.16303e-05
9.27637e-05
0.000152561
0.000211371
0.000267975
0.000323358
0.000376496
0.000427881
0.000476558
0.000523353
0.000567251
0.00060889
0.000647429
0.000683609
0.000716532
0.00074691
0.000773963
0.000798422
0.000819504
0.000837941
0.00085301
0.000865478
0.000874627
0.000881196
0.000884538
0.000885471
0.000883265
0.000878716
0.000871284
0.000861781
0.000849419
0.000835189
0.000818617
0.000800372
0.000779704
0.000757995
0.000734565
0.000709838
0.000683517
0.000657335
0.000629814
0.000601506
0.000573167
0.000546033
0.000517372
0.000489246
0.000463199
0.000438064
0.000411022
0.000408704
0.000393449
0.000372981
0.000350094
0.000341418
0.000329051
0.000292307
0.000267671
0.000262032
0.000187023
7.83929e-05
3.70639e-05
-5.21908e-05
-0.000270115
-0.000411344
-0.000565211
-0.000744598
-0.000564061
-0.000456089
-0.000553129
-0.000574287
-0.000686545
-0.000607285
-0.000710533
-0.001225
-0.00160329
-0.00168366
-0.00175347
-0.00162783
-0.00146823
-0.00141731
-0.00134678
-0.00124156
-0.00116081
-0.00109646
-0.00101819
-0.000937431
-0.000870781
-0.000805851
-0.000734515
-0.000665456
-0.000602713
-0.00053811
-0.000471126
-0.000406201
-0.000343464
-0.000278798
-0.000214075
-0.000150719
-8.83314e-05
-2.52585e-05
3.65012e-05
9.70609e-05
0.000156336
0.000214959
0.000271426
0.000326382
0.000379283
0.000430537
0.000479071
0.000525617
0.000569429
0.000610975
0.000649426
0.00068549
0.0007184
0.000748722
0.000775751
0.000800177
0.000821278
0.000839695
0.000854795
0.000867277
0.00087646
0.000883051
0.000886474
0.000887443
0.000885293
0.000880839
0.000873536
0.000864083
0.000851851
0.000837841
0.000821438
0.000803294
0.00078296
0.000761646
0.000738424
0.000714009
0.000688423
0.000662844
0.000635682
0.000608223
0.000581265
0.000555104
0.00052727
0.000500948
0.000477514
0.000454306
0.000428738
0.000431587
0.000411581
0.000401617
0.000393936
0.000377177
0.000365104
0.000367878
0.000348758
0.000299686
0.000289284
0.000288276
0.000130068
-3.15631e-05
-0.000157029
-0.00038883
-0.000466388
-0.00052432
-0.000643253
-0.000648491
-0.000514269
-0.000594255
-0.000527761
-0.000502695
-0.000525413
-0.000689063
-0.00102241
-0.00148858
-0.00163213
-0.00157564
-0.00151935
-0.00142372
-0.00131922
-0.00124206
-0.00117102
-0.00108662
-0.00100865
-0.000940067
-0.00086742
-0.000794181
-0.000728413
-0.000662921
-0.000594608
-0.000528762
-0.00046591
-0.000401016
-0.000335743
-0.000272287
-0.00020951
-0.000145537
-8.26288e-05
-2.08552e-05
4.02749e-05
0.000101164
0.000160204
0.000218046
0.000274395
0.000329373
0.000381956
0.00043285
0.000481389
0.000527833
0.000571448
0.000612856
0.000651326
0.000687292
0.000720122
0.000750404
0.000777459
0.000801828
0.000822919
0.000841348
0.000856491
0.000868945
0.000878162
0.000884819
0.00088829
0.000889241
0.000887201
0.000882877
0.000875584
0.000866163
0.000854217
0.000840349
0.00082388
0.000806019
0.000786238
0.00076489
0.000741667
0.00071823
0.000693318
0.000667258
0.000640881
0.000615618
0.00058869
0.0005618
0.000537337
0.000514252
0.000488737
0.000466773
0.000449932
0.000450156
0.000434842
0.000427444
0.000425957
0.00041833
0.000409187
0.000419955
0.000423527
0.000392582
0.000383571
0.000390599
0.000332501
0.000154856
-0.000245727
-0.00054377
-0.000548921
-0.000589071
-0.000611682
-0.000579719
-0.000544269
-0.000596948
-0.000526051
-0.000483899
-0.000496387
-0.000526095
-0.000564786
-0.000970078
-0.0014655
-0.00160128
-0.00151381
-0.00138291
-0.00131251
-0.00125484
-0.00116657
-0.00107592
-0.00100593
-0.000938191
-0.000862084
-0.000788405
-0.000722749
-0.000657205
-0.00058912
-0.000522857
-0.000459604
-0.000395505
-0.000330679
-0.000266924
-0.000204341
-0.000141182
-7.84642e-05
-1.66924e-05
4.40311e-05
0.000104414
0.000163384
0.000221054
0.00027708
0.000331802
0.000384336
0.000435043
0.000483405
0.000529729
0.000573303
0.00061458
0.000652982
0.000688889
0.000721703
0.000751919
0.000778965
0.00080331
0.000824417
0.000842826
0.000857986
0.00087045
0.000879716
0.000886372
0.000889882
0.000890898
0.000888925
0.000884603
0.000877417
0.000868139
0.000856242
0.000842424
0.000826235
0.000808568
0.000788796
0.000767736
0.000745074
0.000721753
0.000696967
0.000671825
0.000646205
0.000620892
0.000594869
0.000569865
0.000545984
0.000523337
0.00050064
0.000481157
0.000465163
0.000464319
0.00046091
0.000451278
0.00044337
0.000455335
0.000466035
0.000460169
0.000469049
0.000502968
0.000489135
0.000441164
0.000536442
0.0003431
-0.000330397
-0.000641616
-0.000604421
-0.000563847
-0.000540843
-0.000576919
-0.00060063
-0.000516496
-0.0005186
-0.000552384
-0.000505706
-0.000409427
-0.000401402
-0.000648062
-0.00124059
-0.00153994
-0.00145842
-0.00139539
-0.00132806
-0.00123133
-0.00114905
-0.00108605
-0.00100877
-0.00092381
-0.000855287
-0.00079129
-0.00071822
-0.000647521
-0.000585213
-0.000521006
-0.000453478
-0.000389222
-0.000327468
-0.000263447
-0.000199283
-0.000137165
-7.56411e-05
-1.33872e-05
4.75672e-05
0.000107098
0.000165752
0.000223633
0.000279477
0.000333745
0.000386249
0.00043696
0.000485132
0.000531265
0.000574862
0.000616076
0.000654375
0.000690217
0.000723055
0.000753216
0.000780228
0.000804564
0.0008257
0.000844076
0.000859243
0.000871736
0.000881037
0.00088767
0.000891232
0.00089232
0.000890367
0.00088604
0.000878999
0.000869821
0.00085789
0.000844176
0.000828305
0.000810668
0.000790835
0.000770246
0.000748058
0.000724484
0.000699946
0.000676058
0.000650667
0.000624719
0.00060033
0.000577559
0.00055256
0.0005298
0.000512345
0.000494963
0.000474974
0.000478389
0.000471761
0.000470528
0.000471356
0.000479303
0.000496701
0.000510075
0.000520945
0.000561247
0.00058784
0.000578742
0.000618908
3.9171e-05
-0.000544789
-0.000542975
-0.000572517
-0.000583752
-0.000571231
-0.000568257
-0.000564241
-0.000526579
-0.000530852
-0.000504222
-0.000475222
-0.000427923
-0.000433821
-0.00045124
-0.00093988
-0.00146627
-0.00143476
-0.00140129
-0.00131253
-0.00122288
-0.00115377
-0.00107986
-0.000999816
-0.000925058
-0.000854191
-0.000783486
-0.000714359
-0.000646948
-0.000580611
-0.000515361
-0.000450986
-0.000386671
-0.000322968
-0.000259841
-0.000197025
-0.00013429
-7.23668e-05
-1.10177e-05
4.95961e-05
0.000109456
0.000167947
0.000225329
0.000281166
0.000335487
0.000387775
0.000438283
0.000486493
0.000532568
0.00057604
0.000617186
0.000655506
0.000691287
0.000724077
0.000754219
0.00078125
0.00080555
0.000826678
0.000845061
0.000860258
0.000872728
0.000882041
0.000888719
0.000892315
0.000893372
0.00089148
0.000887252
0.000880206
0.000871009
0.000859275
0.000845677
0.000829696
0.000812206
0.000792804
0.000772155
0.000749819
0.000726951
0.000702944
0.000678496
0.000653527
0.000629303
0.000604754
0.000581065
0.000558651
0.000538222
0.00051859
0.000502163
0.000488764
0.000488414
0.000477667
0.000483217
0.000495604
0.00049733
0.000507268
0.000546146
0.000584829
0.000601402
0.000628863
0.000716
0.000548714
-0.00021214
-0.000607765
-0.000509118
-0.000560349
-0.000602397
-0.000583658
-0.000537755
-0.00053104
-0.000563078
-0.000535552
-0.000468269
-0.000464788
-0.000464176
-0.00040681
-0.000368333
-0.000719455
-0.00130856
-0.0014586
-0.00136366
-0.00128697
-0.00123683
-0.00116059
-0.00106524
-0.000992302
-0.000930667
-0.000853679
-0.000775634
-0.000711524
-0.000647855
-0.00057758
-0.000510762
-0.00044926
-0.000385435
-0.000319919
-0.000257091
-0.000195549
-0.00013255
-7.00903e-05
-9.29274e-06
5.0903e-05
0.000110987
0.000169494
0.000226514
0.000282268
0.000336661
0.000388848
0.000439184
0.000487401
0.000533466
0.000576858
0.000617939
0.000656277
0.000692027
0.000724781
0.000754906
0.000781952
0.000806229
0.00082735
0.000845739
0.000860953
0.000873409
0.000882736
0.00088944
0.000893051
0.000894098
0.000892255
0.000888075
0.000881023
0.000871843
0.000860232
0.000846672
0.000830654
0.000813304
0.000794122
0.000773411
0.000751092
0.000728681
0.000704883
0.000680156
0.000655641
0.000632395
0.000607598
0.000583575
0.000563032
0.00054388
0.000522622
0.000507146
0.00049886
0.000491312
0.000491119
0.000489235
0.000492444
0.000511969
0.000534761
0.000554371
0.000586932
0.000631998
0.000707617
0.000805233
0.000477069
-0.000157315
-0.000571663
-0.000612861
-0.000576458
-0.000543901
-0.000561316
-0.000574417
-0.000555376
-0.000523857
-0.000504145
-0.000508079
-0.000468291
-0.000437567
-0.000395943
-0.000337945
-0.000651712
-0.00116298
-0.00142556
-0.00137097
-0.00130744
-0.00122189
-0.00114181
-0.00107637
-0.00100039
-0.000918481
-0.000848454
-0.000782656
-0.000710858
-0.000640936
-0.000577298
-0.000512918
-0.000446477
-0.000382404
-0.000320235
-0.000256785
-0.000193331
-0.000131365
-6.99782e-05
-8.34783e-06
5.22109e-05
0.000111535
0.000169915
0.000227355
0.000282993
0.000337053
0.000389338
0.000439789
0.000487857
0.000533826
0.000577303
0.000618378
0.000656634
0.000692375
0.000725171
0.000755268
0.000782283
0.000806572
0.000827718
0.00084608
0.000861283
0.000873769
0.000883115
0.000889779
0.000893403
0.000894518
0.000892658
0.000888415
0.000881464
0.000872372
0.000860627
0.000847065
0.000831336
0.000813934
0.000794457
0.000774104
0.000752218
0.000729231
0.000705296
0.000681788
0.000657197
0.000632513
0.000609022
0.000587104
0.000564198
0.000543799
0.000527734
0.000512867
0.000497871
0.000491312
0.000491119
0.000489235
0.000492444
0.000511969
0.000534761
0.000554371
0.000586932
0.000631998
0.000707617
0.000805233
0.000477069
-0.000157315
-0.000571663
-0.000612861
-0.000576458
-0.000543901
-0.000561316
-0.000574417
-0.000555376
-0.000523857
-0.000504145
-0.000508079
-0.000468291
-0.000437567
-0.000395943
-0.000337945
-0.000651712
-0.00116298
-0.00142556
-0.00137097
-0.00130744
-0.00122189
-0.00114181
-0.00107637
-0.00100039
-0.000918481
-0.000848454
-0.000782656
-0.000710858
-0.000640936
-0.000577298
-0.000512918
-0.000446477
-0.000382404
-0.000320235
-0.000256785
-0.000193331
-0.000131365
-6.99782e-05
-8.34783e-06
5.22109e-05
0.000111535
0.000169915
0.000227355
0.000282993
0.000337053
0.000389338
0.000439789
0.000487857
0.000533826
0.000577303
0.000618378
0.000656634
0.000692375
0.000725171
0.000755268
0.000782283
0.000806572
0.000827718
0.00084608
0.000861283
0.000873769
0.000883115
0.000889779
0.000893403
0.000894518
0.000892658
0.000888415
0.000881464
0.000872372
0.000860627
0.000847065
0.000831336
0.000813934
0.000794457
0.000774104
0.000752218
0.000729231
0.000705296
0.000681788
0.000657197
0.000632513
0.000609022
0.000587104
0.000564198
0.000543799
0.000527734
0.000512867
0.000497871
0.000488414
0.000477667
0.000483217
0.000495604
0.00049733
0.000507268
0.000546146
0.000584829
0.000601402
0.000628863
0.000716
0.000548714
-0.00021214
-0.000607765
-0.000509118
-0.000560349
-0.000602397
-0.000583658
-0.000537755
-0.00053104
-0.000563078
-0.000535552
-0.000468269
-0.000464788
-0.000464176
-0.00040681
-0.000368333
-0.000719455
-0.00130856
-0.0014586
-0.00136366
-0.00128697
-0.00123683
-0.00116059
-0.00106524
-0.000992302
-0.000930667
-0.000853679
-0.000775634
-0.000711524
-0.000647855
-0.00057758
-0.000510762
-0.00044926
-0.000385435
-0.000319919
-0.000257091
-0.000195549
-0.00013255
-7.00903e-05
-9.29274e-06
5.0903e-05
0.000110987
0.000169494
0.000226514
0.000282268
0.000336661
0.000388848
0.000439184
0.000487401
0.000533466
0.000576858
0.000617939
0.000656277
0.000692027
0.000724781
0.000754906
0.000781952
0.000806229
0.00082735
0.000845739
0.000860953
0.000873409
0.000882736
0.00088944
0.000893051
0.000894098
0.000892255
0.000888075
0.000881023
0.000871843
0.000860232
0.000846672
0.000830654
0.000813304
0.000794122
0.000773411
0.000751092
0.000728681
0.000704883
0.000680156
0.000655641
0.000632395
0.000607598
0.000583575
0.000563032
0.00054388
0.000522622
0.000507146
0.00049886
0.000478389
0.000471761
0.000470528
0.000471356
0.000479303
0.000496701
0.000510075
0.000520945
0.000561247