# vtk DataFile Version 3.0
fluid_state
ASCII
DATASET RECTILINEAR_GRID
DIMENSIONS 100 40 1
X_COORDINATES 100 float
0.5 1.5 2.5 3.5 4.5 5.5 6.5 7.5 8.5 9.5 10.5 11.5 12.5 13.5 14.5 15.5 16.5 17.5 18.5 19.5 20.5 21.5 22.5 23.5 24.5 25.5 26.5 27.5 28.5 29.5 30.5 31.5 32.5 33.5 34.5 35.5 36.5 37.5 38.5 39.5 40.5 41.5 42.5 43.5 44.5 45.5 46.5 47.5 48.5 49.5 50.5 51.5 52.5 53.5 54.5 55.5 56.5 57.5 58.5 59.5 60.5 61.5 62.5 63.5 64.5 65.5 66.5 67.5 68.5 69.5 70.5 71.5 72.5 73.5 74.5 75.5 76.5 77.5 78.5 79.5 80.5 81.5 82.5 83.5 84.5 85.5 86.5 87.5 88.5 89.5 90.5 91.5 92.5 93.5 94.5 95.5 96.5 97.5 98.5 99.5 
Y_COORDINATES 40 float
0.5 1.5 2.5 3.5 4.5 5.5 6.5 7.5 8.5 9.5 10.5 11.5 12.5 13.5 14.5 15.5 16.5 17.5 18.5 19.5 20.5 21.5 22.5 23.5 24.5 25.5 26.5 27.5 28.5 29.5 30.5 31.5 32.5 33.5 34.5 35.5 36.5 37.5 38.5 39.5 
Z_COORDINATES 1 float
0
POINT_DATA 4000
SCALARS density_difference float 1
LOOKUP_TABLE default
0.000757822
0.000765178
0.000771
0.000774622
0.00077302
0.000763718
0.000746505
0.000727393
0.000698796
0.000649057
0.000596753
0.000540184
0.000453958
0.000359681
0.000266089
0.000148646
2.57248e-05
-9.35046e-05
-0.00022483
-0.000346731
-0.000455172
-0.000570645
-0.000663594
-0.000733192
-0.000806128
-0.000857927
-0.000885257
-0.00091418
-0.000929093
-0.00092536
-0.000921585
-0.000913414
-0.000894077
-0.00087012
-0.000847395
-0.000823005
-0.00079245
-0.000760813
-0.000732644
-0.000702991
-0.000669804
-0.00063836
-0.00060933
-0.000578735
-0.000547173
-0.000517733
-0.000489292
-0.000459919
-0.000430882
-0.000403373
-0.00037611
-0.000348556
-0.000321698
-0.0002957
-0.000269693
-0.000243783
-0.00021847
-0.000193549
-0.000168602
-0.00014389
-0.000119538
-9.53383e-05
-7.11528e-05
-4.71785e-05
-2.33664e-05
3.80623e-07
2.40976e-05
4.7687e-05
7.12189e-05
9.47004e-05
0.000118181
0.000141601
0.000164977
0.000188315
0.00021171
0.000235037
0.000258281
0.000281553
0.000304915
0.000328081
0.000351155
0.000374402
0.00039762
0.000420403
0.000443264
0.000466419
0.000489086
0.000511147
0.000533759
0.000556384
0.000577636
0.000598637
0.000620692
0.000641401
0.000659952
0.000679448
0.000699238
0.000715192
0.000729504
0.000745189
0.000748654
0.000755958
0.000761107
0.000762779
0.000758862
0.000745015
0.000728924
0.000711723
0.000671792
0.000619413
0.00057878
0.000513314
0.000416487
0.000333458
0.000245025
0.000121175
-3.22706e-06
-0.00011043
-0.000231537
-0.0003605
-0.000462904
-0.000561807
-0.00065855
-0.000723244
-0.000784561
-0.000844769
-0.000866914
-0.000882499
-0.000908789
-0.00091008
-0.000894496
-0.00088702
-0.00087785
-0.000854726
-0.000826083
-0.000804079
-0.000781063
-0.000749294
-0.000717525
-0.00069126
-0.000662627
-0.000630023
-0.000599706
-0.00057215
-0.000542543
-0.000512052
-0.000483667
-0.000456323
-0.000427816
-0.000399733
-0.000372983
-0.000346535
-0.000319628
-0.000293468
-0.000267962
-0.000242541
-0.000217049
-0.000192204
-0.000167578
-0.00014303
-0.000118548
-9.45046e-05
-7.04591e-05
-4.65316e-05
-2.26661e-05
9.38035e-07
2.4634e-05
4.81804e-05
7.17177e-05
9.51109e-05
0.000118614
0.000141944
0.000165329
0.000188636
0.000212018
0.000235205
0.000258524
0.000281777
0.000305001
0.000328044
0.000351314
0.000374407
0.000397318
0.000420163
0.000443278
0.000465888
0.000488208
0.000510728
0.000533284
0.000554738
0.000576073
0.000597856
0.000618778
0.000637951
0.000657612
0.000677248
0.000694284
0.000709468
0.000725329
0.000739009
0.000742714
0.000752688
0.000756014
0.000752637
0.000747882
0.000739518
0.000721715
0.000689994
0.000654704
0.000618657
0.000555924
0.00047585
0.00041025
0.000319127
0.000198468
9.66729e-05
-1.49757e-05
-0.000148461
-0.000261819
-0.000374805
-0.000492131
-0.000576972
-0.000661252
-0.000744678
-0.000788461
-0.000826773
-0.00087015
-0.000884015
-0.000885811
-0.00089284
-0.000889419
-0.000873465
-0.000854744
-0.000839277
-0.000818146
-0.000789142
-0.000762434
-0.000738968
-0.00070994
-0.000678516
-0.00065069
-0.000623575
-0.000593077
-0.00056324
-0.000535678
-0.000507801
-0.000478573
-0.000450783
-0.000423965
-0.000396809
-0.000369436
-0.000343306
-0.000317393
-0.000291423
-0.000265648
-0.000240691
-0.000215641
-0.000190775
-0.000166113
-0.000141928
-0.000117578
-9.35113e-05
-6.9519e-05
-4.58168e-05
-2.19532e-05
1.63354e-06
2.52651e-05
4.86814e-05
7.22605e-05
9.56048e-05
0.000119049
0.000142306
0.000165751
0.000188973
0.000212292
0.000235467
0.000258844
0.000281934
0.000305116
0.000328236
0.000351485
0.000374295
0.000397286
0.000420289
0.000443119
0.00046537
0.000488091
0.000510645
0.000532397
0.000553741
0.000575932
0.00059702
0.000616578
0.000636598
0.000657155
0.000674467
0.000690347
0.000707823
0.000723242
0.000732965
0.000743562
0.000749175
0.000752029
0.000752192
0.000745753
0.000734932
0.000716711
0.000683888
0.000651551
0.000610776
0.000537899
0.000465576
0.000398341
0.000289438
0.000169637
6.65169e-05
-5.15383e-05
-0.000191915
-0.000315738
-0.000418484
-0.000534222
-0.000632146
-0.000700715
-0.000775255
-0.000825074
-0.00084515
-0.000880282
-0.000901209
-0.000889263
-0.000885436
-0.000885451
-0.000870422
-0.000845268
-0.000824371
-0.000806697
-0.00078115
-0.000750087
-0.000724554
-0.000699912
-0.000670234
-0.000639773
-0.000613167
-0.000585783
-0.000556318
-0.000527667
-0.0005011
-0.000473556
-0.000445628
-0.000418654
-0.000392703
-0.000366032
-0.000339738
-0.000314083
-0.000288918
-0.000263334
-0.000238349
-0.000213632
-0.000189194
-0.000164538
-0.000140439
-0.000116334
-9.2459e-05
-6.84494e-05
-4.48701e-05
-2.11334e-05
2.36317e-06
2.5992e-05
4.931e-05
7.28425e-05
9.61122e-05
0.000119552
0.000142761
0.000166173
0.000189305
0.000212666
0.000235821
0.000259108
0.000282128
0.000305446
0.00032848
0.000351541
0.000374427
0.000397618
0.000420289
0.000442938
0.00046559
0.000488325
0.000510143
0.000532112
0.000554188
0.00057563
0.000595805
0.000616627
0.000637045
0.000655486
0.000672859
0.000691213
0.000707095
0.000719703
0.000732136
0.000745772
0.000749272
0.000754906
0.000757758
0.000749535
0.000733898
0.000717049
0.000694304
0.000653084
0.000591318
0.000538407
0.000475371
0.000358059
0.000250582
0.000165107
1.58414e-05
-0.000132418
-0.000241643
-0.000380268
-0.000512296
-0.00060553
-0.000714211
-0.000786989
-0.000823047
-0.000883157
-0.000917659
-0.000906673
-0.00091392
-0.000922471
-0.000906706
-0.000881106
-0.000864702
-0.000851017
-0.000822809
-0.00079081
-0.000769895
-0.000746306
-0.00071413
-0.000684639
-0.000660746
-0.000632802
-0.000602284
-0.000574848
-0.000549235
-0.000520852
-0.000492738
-0.000466499
-0.000440563
-0.000413269
-0.000387085
-0.000361658
-0.000336204
-0.000310277
-0.000285411
-0.000260628
-0.000235927
-0.000211119
-0.000187073
-0.000162821
-0.000138806
-0.000114734
-9.1167e-05
-6.73157e-05
-4.37772e-05
-2.01171e-05
3.184e-06
2.67772e-05
5.00488e-05
7.35063e-05
9.66713e-05
0.00012013
0.000143272
0.000166627
0.000189731
0.000213126
0.000236176
0.000259447
0.000282517
0.000305828
0.000328711
0.000351867
0.00037486
0.000397908
0.000420439
0.000443406
0.000466102
0.000488454
0.000510367
0.000532954
0.000554698
0.000575565
0.000596526
0.000618067
0.000637294
0.000655517
0.000674869
0.000693199
0.000706895
0.000720866
0.000736101
0.000748712
0.00076017
0.000765045
0.000760778
0.000758431
0.000749473
0.000725755
0.000698987
0.000659855
0.000599609
0.000541196
0.000456526
0.000338799
0.000236061
0.000110917
-4.96061e-05
-0.00019814
-0.000336018
-0.000478807
-0.000629485
-0.000729679
-0.000816134
-0.000901402
-0.00093788
-0.000959047
-0.000991857
-0.000979549
-0.000958889
-0.00095449
-0.00093377
-0.0009033
-0.000873748
-0.000848348
-0.000823949
-0.000791585
-0.000760138
-0.000734263
-0.000707244
-0.000676151
-0.000647651
-0.000621329
-0.000593853
-0.000565008
-0.000538358
-0.000512179
-0.000485391
-0.00045838
-0.000432952
-0.000407271
-0.000381505
-0.000355908
-0.00033132
-0.000306267
-0.00028151
-0.000256905
-0.000232905
-0.00020847
-0.000184504
-0.000160519
-0.000136931
-0.000112995
-8.95363e-05
-6.58967e-05
-4.25823e-05
-1.89753e-05
4.21969e-06
2.769e-05
5.08395e-05
7.42749e-05
9.73701e-05
0.000120763
0.000143821
0.000167197
0.000190268
0.000213598
0.000236602
0.000259972
0.000282995
0.000306206
0.000329161
0.000352491
0.000375307
0.000398288
0.000421161
0.000444231
0.000466508
0.000489131
0.000511725
0.000533946
0.000555194
0.000577266
0.000598865
0.000619042
0.000638653
0.00065953
0.000678115
0.000694247
0.000711332
0.000728457
0.000739377
0.000760767
0.000773095
0.000776082
0.000774928
0.000776047
0.000767294
0.000743503
0.000710452
0.00067308
0.000626068
0.000538332
0.000424913
0.000349681
0.000219559
9.98453e-06
-0.000115335
-0.000254858
-0.000476542
-0.000628299
-0.000751395
-0.000894507
-0.000962671
-0.00102769
-0.00110041
-0.00107692
-0.00105222
-0.00107525
-0.00104857
-0.000992965
-0.000955513
-0.000935965
-0.00090316
-0.000852078
-0.000818894
-0.000796281
-0.000760574
-0.000722245
-0.000695947
-0.000669711
-0.000637532
-0.000607483
-0.000582767
-0.000555809
-0.00052728
-0.000500973
-0.000476546
-0.000450184
-0.000424159
-0.000399411
-0.000375158
-0.000349757
-0.000325254
-0.000301166
-0.000277214
-0.000252698
-0.000229038
-0.000205279
-0.000181689
-0.000157802
-0.000134564
-0.000111007
-8.77198e-05
-6.41913e-05
-4.11374e-05
-1.77045e-05
5.39933e-06
2.87677e-05
5.17631e-05
7.51411e-05
9.81674e-05
0.000121487
0.000144489
0.00016786
0.000190859
0.000214173
0.000237206
0.000260568
0.000283519
0.000306824
0.000329866
0.000353128
0.000375943
0.000399202
0.000422128
0.000445056
0.000467594
0.000490696
0.000513145
0.000535311
0.00055738
0.000579961
0.00060108
0.000621814
0.000643056
0.000663966
0.000681967
0.000700278
0.00071948
0.0007354
0.000746918
0.000778259
0.000783616
0.000793478
0.00080498
0.0007972
0.000781343
0.000775121
0.000745905
0.000689672
0.000636167
0.000555065
0.000443071
0.000324316
0.000153951
-1.54056e-05
-0.000187247
-0.000404801
-0.000596467
-0.000780532
-0.000922027
-0.00107602
-0.00117147
-0.00118804
-0.00121377
-0.00123522
-0.00118648
-0.00115043
-0.00110945
-0.00105913
-0.00101532
-0.000958209
-0.000914459
-0.000877449
-0.000831041
-0.000788625
-0.000756806
-0.000723146
-0.000687103
-0.000655449
-0.000627951
-0.000598345
-0.000569086
-0.000542508
-0.00051713
-0.000490212
-0.000464585
-0.000440101
-0.000415688
-0.000390496
-0.00036661
-0.000342822
-0.000318991
-0.00029487
-0.000271694
-0.000248145
-0.000224762
-0.000201223
-0.000178286
-0.000154877
-0.000131799
-0.000108512
-8.56367e-05
-6.2324e-05
-3.93945e-05
-1.61705e-05
6.70873e-06
2.99824e-05
5.28895e-05
7.61378e-05
9.90475e-05
0.000122344
0.0001453
0.00016859
0.000191544
0.00021491
0.000237919
0.000261218
0.00028423
0.000307669
0.000330643
0.000353896
0.000376986
0.000400392
0.000423138
0.000446322
0.000469447
0.000492478
0.000514739
0.00053789
0.000560715
0.000582644
0.000604229
0.000627258
0.000648601
0.000668239
0.00068911
0.000710895
0.000727634
0.000743397
0.000762946
0.000793891
0.00080676
0.000821508
0.000828282
0.000824852
0.000820362
0.00080897
0.000777671
0.000729358
0.000657868
0.000577805
0.000481491
0.000283712
9.0722e-05
-6.22206e-06
-0.00028706
-0.000574497
-0.000698341
-0.000938411
-0.00114969
-0.00124069
-0.00136883
-0.00140954
-0.00132748
-0.00135538
-0.00134811
-0.00123168
-0.00116207
-0.00112165
-0.00107347
-0.000994908
-0.000927653
-0.000892099
-0.000847642
-0.000791553
-0.000751209
-0.000719634
-0.000682157
-0.000644645
-0.000615517
-0.00058745
-0.000557202
-0.000528807
-0.000504254
-0.000478754
-0.000452832
-0.000428341
-0.000405376
-0.000381234
-0.000357451
-0.00033434
-0.000311741
-0.00028826
-0.000265385
-0.000242591
-0.000220002
-0.000196836
-0.000174252
-0.000151415
-0.000128774
-0.000105724
-8.31496e-05
-6.01867e-05
-3.74802e-05
-1.44206e-05
8.25343e-06
3.13498e-05
5.41389e-05
7.72774e-05
0.000100087
0.000123311
0.000146194
0.000169442
0.000192395
0.000215728
0.000238696
0.000262064
0.000285146
0.000308541
0.000331572
0.000355063
0.000378214
0.000401579
0.000424656
0.000448241
0.000471303
0.000494509
0.000517621
0.000541152
0.0005638
0.000586684
0.000609736
0.000632728
0.00065432
0.000676573
0.000699023
0.00072005
0.000739131
0.000759756
0.000779202
0.000814775
0.000839524
0.000850744
0.000851804
0.000868243
0.000874616
0.00084067
0.000812729
0.000796276
0.000712367
0.000592948
0.000487744
0.000320658
0.000109654
-0.000142768
-0.000393881
-0.000544915
-0.000837477
-0.00113153
-0.00135529
-0.00142469
-0.00149736
-0.00158709
-0.00156815
-0.00144294
-0.00138238
-0.00131971
-0.0012759
-0.00117963
-0.00107609
-0.00103239
-0.000974917
-0.000896821
-0.000844193
-0.000805417
-0.000756745
-0.000708568
-0.000673625
-0.000640696
-0.000604434
-0.000572065
-0.000545567
-0.000517711
-0.000489673
-0.000464738
-0.000441589
-0.000416811
-0.000393036
-0.000370654
-0.000348418
-0.000325185
-0.000303021
-0.000281025
-0.000258894
-0.000236262
-0.000214386
-0.000192137
-0.000169915
-0.000147372
-0.000125306
-0.000102741
-8.03727e-05
-5.76904e-05
-3.53427e-05
-1.2521e-05
1.00242e-05
3.2917e-05
5.55153e-05
7.85505e-05
0.00010129
0.000124387
0.000147193
0.000170431
0.000193357
0.000216622
0.000239623
0.000263065
0.000286134
0.000309536
0.000332764
0.000356386
0.00037951
0.000403083
0.000426603
0.000450274
0.000473369
0.00049729
0.00052108
0.000544477
0.000567623
0.000592192
0.000615817
0.000638427
0.000662098
0.000687292
0.000709208
0.000730494
0.000755441
0.000779042
0.000795103
0.000844476
0.000864574
0.000882318
0.000900992
0.000912917
0.000909818
0.000903976
0.000888903
0.000837847
0.000767579
0.000671524
0.000507383
0.000362552
0.000168205
-0.000263356
-0.00045398
-0.000517338
-0.000923344
-0.00115296
-0.00142446
-0.00171605
-0.00174522
-0.00162647
-0.00167533
-0.00154294
-0.00144349
-0.00142019
-0.00132179
-0.00121854
-0.00111669
-0.00104959
-0.000990282
-0.000915583
-0.000853851
-0.000805942
-0.000756426
-0.000707568
-0.000667129
-0.000630856
-0.000594926
-0.000561074
-0.000531957
-0.00050445
-0.000477272
-0.000451355
-0.000427999
-0.000404796
-0.000381702
-0.000359198
-0.000337878
-0.000316033
-0.000294338
-0.000272774
-0.000251669
-0.000229919
-0.000208417
-0.00018674
-0.000165255
-0.000143215
-0.000121463
-9.93712e-05
-7.74342e-05
-5.50426e-05
-3.29326e-05
-1.04178e-05
1.19011e-05
3.46188e-05
5.7075e-05
7.99436e-05
0.000102567
0.000125576
0.000148341
0.000171495
0.000194372
0.000217657
0.0002407
0.000264086
0.000287207
0.000310785
0.000334076
0.000357671
0.000381095
0.000405004
0.000428502
0.000452363
0.000476239
0.000500483
0.000524176
0.000548529
0.000573029
0.000597518
0.000621528
0.000646743
0.000671821
0.00069631
0.000720867
0.00074696
0.000771712
0.000795268
0.000819656
0.00087402
0.00089291
0.000922489
0.000953317
0.000957286
0.000959317
0.000986589
0.000967565
0.000886635
0.000847849
0.000787662
0.000579334
0.000370711
0.000211317
-6.80113e-05
-0.00045119
-0.000860661
-0.000821443
-0.000957982
-0.0013046
-0.00133757
-0.00164639
-0.00174493
-0.0015251
-0.00160673
-0.00161368
-0.00151474
-0.0012937
-0.00122151
-0.0011885
-0.0010675
-0.000975408
-0.000932873
-0.000873915
-0.000801486
-0.000750728
-0.000711112
-0.000663513
-0.000618315
-0.000585315
-0.000553538
-0.000519169
-0.000489566
-0.000465367
-0.000439762
-0.000414174
-0.000391714
-0.000370751
-0.000348322
-0.000326697
-0.000306258
-0.000285828
-0.000264471
-0.000243845
-0.000223255
-0.000202438
-0.000181083
-0.00016019
-0.000138891
-0.000117511
-9.57478e-05
-7.42611e-05
-5.22849e-05
-3.03862e-05
-8.13534e-06
1.39106e-05
3.64149e-05
5.87535e-05
8.14434e-05
0.000103937
0.000126858
0.000149569
0.000172625
0.00019549
0.000218777
0.000241812
0.000265191
0.00028843
0.00031208
0.000335408
0.000359155
0.000382865
0.000406883
0.000430536
0.000454873
0.00047922
0.000503591
0.000527806
0.000553215
0.000578302
0.000603038
0.000628531
0.00065567
0.00068122
0.000706564
0.00073476
0.000763682
0.000788242
0.000815012
0.000847284
0.000900967
0.000935995
0.000965446
0.00098903
0.00101902
0.00104392
0.00104066
0.00102899
0.00102912
0.000961975
0.000815639
0.000711876
0.000539379
0.000245993
0.000183714
-0.00032147
-0.00111749
-0.000502201
-0.000446901
-0.00102521
-0.000535126
-0.000973375
-0.00119898
-0.00101144
-0.00157772
-0.00169305
-0.00144626
-0.00136248
-0.00125421
-0.00116054
-0.00107785
-0.00100561
-0.000935969
-0.000866411
-0.000808008
-0.000755786
-0.000703767
-0.000656902
-0.000615208
-0.000576162
-0.000540776
-0.000509425
-0.000479391
-0.000451627
-0.000426753
-0.00040331
-0.000379961
-0.000358276
-0.000337618
-0.000317077
-0.000296376
-0.000276555
-0.000256618
-0.000236525
-0.000216191
-0.000196198
-0.000175704
-0.00015514
-0.000134265
-0.0001135
-9.22116e-05
-7.09672e-05
-4.9362e-05
-2.78266e-05
-5.83998e-06
1.60384e-05
3.82944e-05
6.04427e-05
8.29888e-05
0.000105401
0.000128179
0.000150804
0.000173821
0.00019669
0.000219892
0.000242938
0.000266414
0.000289702
0.000313303
0.000336837
0.000360836
0.000384552
0.000408675
0.000432929
0.000457558
0.000481826
0.000506889
0.000532243
0.000557631
0.000582931
0.000609778
0.000636593
0.000663035
0.000690582
0.000720235
0.000748515
0.000776896
0.000808459
0.000840769
0.000869576
0.000931726
0.000974912
0.00100829
0.00103609
0.00108126
0.00111813
0.00111467
0.00112516
0.0011545
0.00107112
0.000930341
0.000881386
0.000731328
0.000399002
0.000130134
-0.00023648
-0.000585648
-0.000392827
-0.00027551
-0.000437497
-0.000471082
-0.000593976
-0.000476772
-0.00055345
-0.00106415
-0.00134965
-0.00136545
-0.0014316
-0.00128465
-0.00112604
-0.00108571
-0.00102359
-0.000928242
-0.000863259
-0.000817398
-0.000756678
-0.000695143
-0.000651863
-0.000612974
-0.000568518
-0.000529239
-0.000499692
-0.000470524
-0.000440224
-0.000414383
-0.000392474
-0.000369662
-0.000347186
-0.000326998
-0.000307736
-0.000287505
-0.000267793
-0.000248722
-0.000229525
-0.000209623
-0.000190053
-0.000170315
-0.000150309
-0.000129808
-0.000109463
-8.86918e-05
-6.7774e-05
-4.64654e-05
-2.52343e-05
-3.55654e-06
1.81383e-05
4.01824e-05
6.21558e-05
8.4539e-05
0.000106857
0.000129505
0.000152071
0.000175022
0.000197858
0.000221022
0.000244118
0.000267594
0.000290915
0.000314613
0.000338302
0.000362353
0.000386243
0.000410671
0.000435172
0.00045996
0.000484726
0.000510377
0.000536071
0.000561959
0.000588371
0.000616134
0.000643544
0.000671319
0.000700949
0.000732052
0.000761653
0.000792869
0.000828302
0.000863327
0.000894524
0.00096542
0.00100207
0.00104997
0.00110056
0.00113529
0.00117158
0.00122494
0.00124445
0.00120953
0.00121751
0.00123031
0.000998881
0.000736613
0.000491873
4.64643e-07
-0.000237485
-0.000345992
-0.000509268
-0.000550739
-0.000354852
-0.000469749
-0.000410737
-0.000360429
-0.00039838
-0.000571616
-0.000842134
-0.00120565
-0.00130028
-0.00122576
-0.00117785
-0.00109237
-0.000994618
-0.000931852
-0.000877572
-0.000808011
-0.0007482
-0.000701175
-0.000649924
-0.000600259
-0.000562053
-0.000526459
-0.00048948
-0.000458113
-0.000432348
-0.000406118
-0.000380801
-0.000359141
-0.000338923
-0.000317916
-0.000298028
-0.000279397
-0.000260618
-0.000241283
-0.000222555
-0.00020379
-0.000184618
-0.000165048
-0.000145658
-0.00012581
-0.000105694
-8.52279e-05
-6.4758e-05
-4.38011e-05
-2.27331e-05
-1.32278e-06
2.01111e-05
4.19648e-05
6.38362e-05
8.60387e-05
0.000108224
0.000130786
0.00015332
0.00017616
0.000198957
0.000222144
0.000245263
0.000268668
0.000292088
0.000315939
0.000339647
0.000363712
0.000387976
0.000412641
0.000437088
0.000462241
0.000487819
0.000513545
0.00053927
0.000566504
0.000594035
0.000621312
0.000649794
0.000680733
0.000710791
0.000741012
0.000775274
0.000811454
0.000844493
0.000881163
0.000924851
0.000992854
0.0010367
0.00108945
0.0011489
0.00119608
0.0012385
0.00130526
0.00135462
0.00134538
0.00135935
0.00137804
0.00127988
0.000967393
0.000235767
-0.000325652
-0.00035286
-0.000441761
-0.000485823
-0.000436405
-0.000390522
-0.000464735
-0.000382041
-0.000350498
-0.000371061
-0.000394562
-0.000423941
-0.000741435
-0.00114565
-0.00126002
-0.00117142
-0.00104382
-0.00098812
-0.000947934
-0.000874185
-0.000798595
-0.000747333
-0.000700493
-0.00064551
-0.000595013
-0.000555969
-0.000519743
-0.000482748
-0.000450262
-0.000423483
-0.000397857
-0.000372804
-0.000350476
-0.000330369
-0.000310249
-0.000290575
-0.000271955
-0.000253785
-0.000235155
-0.000216676
-0.000198273
-0.000179695
-0.000160604
-0.000141485
-0.000122045
-0.000102345
-8.21957e-05
-6.19638e-05
-4.13228e-05
-2.05039e-05
6.93707e-07
2.19596e-05
4.36125e-05
6.53471e-05
8.74136e-05
0.000109515
0.000131968
0.000154434
0.000177216
0.000200014
0.000223146
0.000246261
0.000269716
0.000293203
0.000317032
0.000340862
0.000365125
0.000389472
0.000414201
0.000439053
0.000464528
0.000490163
0.00051631
0.000542902
0.000570407
0.000598178
0.000626817
0.000656547
0.000687562
0.000718984
0.000752072
0.000787454
0.000824396
0.00086161
0.000902285
0.00094755
0.00101446
0.00107528
0.00112614
0.00117724
0.00125207
0.0013238
0.00136871
0.00142591
0.00150815
0.00151498
0.00146042
0.00158639
0.00118242
3.57728e-05
-0.000483196
-0.000441478
-0.000399545
-0.000370767
-0.000414529
-0.00047456
-0.000371018
-0.000360074
-0.000418851
-0.000371823
-0.000262914
-0.000260189
-0.000472326
-0.000952113
-0.0011814
-0.00110468
-0.00106
-0.00100869
-0.000920697
-0.000853804
-0.000812799
-0.000753039
-0.000684694
-0.000638609
-0.000599685
-0.000551257
-0.000508279
-0.000477915
-0.000447514
-0.000415171
-0.000389001
-0.000367443
-0.000344573
-0.000322396
-0.000303422
-0.000285204
-0.000265994
-0.000247591
-0.000230067
-0.000212119
-0.000193569
-0.000175357
-0.000156968
-0.000138068
-0.000118757
-9.94534e-05
-7.96893e-05
-5.95894e-05
-3.91481e-05
-1.86002e-05
2.39249e-06
2.35654e-05
4.50518e-05
6.66338e-05
8.85948e-05
0.000110647
0.000132987
0.000155385
0.000178139
0.000200934
0.000223993
0.000247124
0.000270643
0.000294146
0.000317943
0.000341944
0.000366357
0.000390683
0.000415536
0.000440841
0.000466434
0.000492029
0.000518812
0.00054616
0.000573468
0.000601603
0.000632008
0.000662325
0.000692654
0.00072631
0.000762704
0.000797045
0.000833967
0.000878446
0.000922668
0.000963085
0.00103598
0.00109311
0.00115549
0.00121929
0.00129097
0.00137261
0.00144208
0.00150562
0.00160487
0.00166348
0.00165193
0.00171558
0.00070605
-0.000306527
-0.000334187
-0.000402112
-0.000411439
-0.000404182
-0.000414245
-0.00041006
-0.000367034
-0.000386754
-0.00035489
-0.000323014
-0.000287851
-0.000290753
-0.000301781
-0.000687567
-0.00110542
-0.00108402
-0.0010609
-0.00098522
-0.000913902
-0.000862222
-0.000804876
-0.000742983
-0.000688173
-0.000638262
-0.000590601
-0.000547227
-0.00050797
-0.000472165
-0.000440262
-0.000411595
-0.000385024
-0.000360874
-0.000338951
-0.000318304
-0.000298471
-0.000279745
-0.000261623
-0.000243677
-0.000225798
-0.000208135
-0.000190274
-0.000172197
-0.000153846
-0.000135332
-0.000116386
-9.71708e-05
-7.7581e-05
-5.77566e-05
-3.75065e-05
-1.70442e-05
3.7848e-06
2.4799e-05
4.61763e-05
6.76974e-05
8.95478e-05
0.000111515
0.000133801
0.000156184
0.000178866
0.000201623
0.000224702
0.000247858
0.00027131
0.00029486
0.000318784
0.00034279
0.000367157
0.000391744
0.000416797
0.000441984
0.000467759
0.000493993
0.000520797
0.000547968
0.000576248
0.000605271
0.000635053
0.000665945
0.000698753
0.000732504
0.000767771
0.000805684
0.000846156
0.000888122
0.000933772
0.000983428
0.00105136
0.0011035
0.0011754
0.00125541
0.00131935
0.00139203
0.00149853
0.00160098
0.00166573
0.00173075
0.00186536
0.00157458
0.000296673
-0.000408508
-0.000288638
-0.000370001
-0.000429326
-0.000419272
-0.000373701
-0.000359548
-0.000408275
-0.000392112
-0.000308605
-0.000308556
-0.000321807
-0.000257919
-0.00021738
-0.000499915
-0.000978902
-0.00110535
-0.00101754
-0.000954204
-0.00092907
-0.000871042
-0.000788316
-0.000734507
-0.00069541
-0.000638191
-0.000581581
-0.000544116
-0.000509159
-0.000468401
-0.000434446
-0.000409104
-0.000382932
-0.000356447
-0.000334781
-0.000315613
-0.000295386
-0.000275978
-0.000258516
-0.000241114
-0.000222985
-0.000205351
-0.000187989
-0.000170101
-0.000151723
-0.000133416
-0.00011476
-9.56292e-05
-7.61211e-05
-5.64772e-05
-3.63819e-05
-1.59759e-05
4.75626e-06
2.56563e-05
4.6952e-05
6.84356e-05
9.02112e-05
0.000112117
0.000134367
0.000156736
0.000179368
0.000202108
0.000225196
0.000248356
0.000271776
0.00029537
0.000319353
0.000343358
0.000367739
0.000392488
0.00041762
0.000442781
0.000468739
0.000495306
0.000522094
0.000549313
0.000578224
0.000607644
0.000637152
0.000668669
0.000702887
0.000736538
0.000771463
0.000811925
0.000854397
0.000894555
0.000941588
0.000998307
0.0010562
0.00112239
0.00118506
0.00125376
0.0013411
0.00143091
0.0015143
0.00160904
0.00170946
0.00184838
0.00200622
0.00144089
0.000340861
-0.000372881
-0.000427335
-0.000380915
-0.000358674
-0.000386593
-0.000406262
-0.000397681
-0.00036485
-0.000338354
-0.000356588
-0.000320133
-0.000280445
-0.00024774
-0.000197066
-0.000443061
-0.000842765
-0.0010504
-0.00102378
-0.000983253
-0.000910046
-0.000847159
-0.000802954
-0.000744841
-0.00068032
-0.000632221
-0.000590573
-0.000543244
-0.000500711
-0.000468183
-0.000436949
-0.000405422
-0.000378985
-0.00035653
-0.000333977
-0.000312446
-0.000293473
-0.000275355
-0.000256858
-0.000239023
-0.000221833
-0.000204392
-0.00018654
-0.000168821
-0.000150892
-0.000132518
-0.000113751
-9.48407e-05
-7.54958e-05
-5.57946e-05
-3.57341e-05
-1.54666e-05
5.21363e-06
2.61318e-05
4.73713e-05
6.87821e-05
9.05421e-05
0.000112458
0.00013466
0.000156987
0.000179636
0.000202395
0.00022542
0.000248572
0.000272075
0.000295659
0.000319543
0.000343661
0.000368182
0.000392774
0.000417869
0.00044342
0.000469378
0.000495549
0.000522766
0.000550648
0.000578879
0.000608044
0.000639187
0.000670806
0.000703134
0.000738411
0.00077632
0.000813909
0.000854643
0.00090168
0.000949903
0.000998029
0.0010562
0.00112239
0.00118506
0.00125376
0.0013411
0.00143091
0.0015143
0.00160904
0.00170946
0.00184838
0.00200622
0.00144089
0.000340861
-0.000372881
-0.000427335
-0.000380915
-0.000358674
-0.000386593
-0.000406262
-0.000397681
-0.00036485
-0.000338354
-0.000356588
-0.000320133
-0.000280445
-0.00024774
-0.000197066
-0.000443061
-0.000842765
-0.0010504
-0.00102378
-0.000983253
-0.000910046
-0.000847159
-0.000802954
-0.000744841
-0.00068032
-0.000632221
-0.000590573
-0.000543244
-0.000500711
-0.000468183
-0.000436949
-0.000405422
-0.000378985
-0.00035653
-0.000333977
-0.000312446
-0.000293473
-0.000275355
-0.000256858
-0.000239023
-0.000221833
-0.000204392
-0.00018654
-0.000168821
-0.000150892
-0.000132518
-0.000113751
-9.48407e-05
-7.54958e-05
-5.57946e-05
-3.57341e-05
-1.54666e-05
5.21363e-06
2.61318e-05
4.73713e-05
6.87821e-05
9.05421e-05
0.000112458
0.00013466
0.000156987
0.000179636
0.000202395
0.00022542
0.000248572
0.000272075
0.000295659
0.000319543
0.000343661
0.000368182
0.000392774
0.000417869
0.00044342
0.000469378
0.000495549
0.000522766
0.000550648
0.000578879
0.000608044
0.000639187
0.000670806
0.000703134
0.000738411
0.00077632
0.000813909
0.000854643
0.00090168
0.000949903
0.000998029
0.00105136
0.0011035
0.0011754
0.00125541
0.00131935
0.00139203
0.00149853
0.00160098
0.00166573
0.00173075
0.00186536
0.00157458
0.000296673
-0.000408508
-0.000288638
-0.000370001
-0.000429326
-0.000419272
-0.000373701
-0.000359548
-0.000408275
-0.000392112
-0.000308605
-0.000308556
-0.000321807
-0.000257919
-0.00021738
-0.000499915
-0.000978902
-0.00110535
-0.00101754
-0.000954204
-0.00092907
-0.000871042
-0.000788316
-0.000734507
-0.00069541
-0.000638191
-0.000581581
-0.000544116
-0.000509159
-0.000468401
-0.000434446
-0.000409104
-0.000382932
-0.000356447
-0.000334781
-0.000315613
-0.000295386
-0.000275978
-0.000258516
-0.000241114
-0.000222985
-0.000205351
-0.000187989
-0.000170101
-0.000151723
-0.000133416
-0.00011476
-9.56292e-05
-7.61211e-05
-5.64772e-05
-3.63819e-05
-1.59759e-05
4.75626e-06
2.56563e-05
4.6952e-05
6.84356e-05
9.02112e-05
0.000112117
0.000134367
0.000156736
0.000179368
0.000202108
0.000225196
0.000248356
0.000271776
0.00029537
0.000319353
0.000343358
0.000367739
0.000392488
0.00041762
0.000442781
0.000468739
0.000495306