# vtk DataFile Version 3.0
fluid_state
ASCII
DATASET RECTILINEAR_GRID
DIMENSIONS 100 40 1
X_COORDINATES 100 float
0.5 1.5 2.5 3.5 4.5 5.5 6.5 7.5 8.5 9.5 10.5 11.5 12.5 13.5 14.5 15.5 16.5 17.5 18.5 19.5 20.5 21.5 22.5 23.5 24.5 25.5 26.5 27.5 28.5 29.5 30.5 31.5 32.5 33.5 34.5 35.5 36.5 37.5 38.5 39.5 40.5 41.5 42.5 43.5 44.5 45.5 46.5 47.5 48.5 49.5 50.5 51.5 52.5 53.5 54.5 55.5 56.5 57.5 58.5 59.5 60.5 61.5 62.5 63.5 64.5 65.5 66.5 67.5 68.5 69.5 70.5 71.5 72.5 73.5 74.5 75.5 76.5 77.5 78.5 79.5 80.5 81.5 82.5 83.5 84.5 85.5 86.5 87.5 88.5 89.5 90.5 91.5 92.5 93.5 94.5 95.5 96.5 97.5 98.5 99.5 
Y_COORDINATES 40 float
0.5 1.5 2.5 3.5 4.5 5.5 6.5 7.5 8.5 9.5 10.5 11.5 12.5 13.5 14.5 15.5 16.5 17.5 18.5 19.5 20.5 21.5 22.5 23.5 24.5 25.5 26.5 27.5 28.5 29.5 30.5 31.5 32.5 33.5 34.5 35.5 36.5 37.5 38.5 39.5 
Z_COORDINATES 1 float
0
POINT_DATA 4000
SCALARS density_difference float 1
LOOKUP_TABLE default
0.000404369
0.000836503
0.00126863
0.00170284
0.00212798
0.0025434
0.00295756
0.00336332
0.00375366
0.00413308
0.00450091
0.00485447
0.00519038
0.00550462
0.00580027
0.00607757
0.00632916
0.0065491
0.00674325
0.00691534
0.00705117
0.00714845
0.00721712
0.0072541
0.0072536
0.00721238
0.00713556
0.00703074
0.00688885
0.00670865
0.00650006
0.00626776
0.00601122
0.00572414
0.00541688
0.00510324
0.00476917
0.00441238
0.0040531
0.00368834
0.00330562
0.00291553
0.00252626
0.00212941
0.00172432
0.00131922
0.000913787
0.000504714
9.53391e-05
-0.00031126
-0.000716115
-0.00111865
-0.0015162
-0.0019078
-0.002293
-0.00267022
-0.00303781
-0.00339493
-0.00374025
-0.00407239
-0.00439009
-0.00469227
-0.00497756
-0.00524494
-0.00549323
-0.00572151
-0.00592867
-0.00611402
-0.00627658
-0.00641581
-0.00653096
-0.00662168
-0.00668734
-0.00672782
-0.00674274
-0.00673209
-0.00669565
-0.00663373
-0.00654624
-0.00643354
-0.00629586
-0.00613381
-0.00594765
-0.00573809
-0.00550586
-0.00525175
-0.00497646
-0.00468118
-0.0043669
-0.00403464
-0.0036858
-0.00332179
-0.0029435
-0.00255267
-0.0021515
-0.00174045
-0.00132043
-0.000895377
-0.00046675
-3.21798e-05
0.000403828
0.00083583
0.00127124
0.00170015
0.00211969
0.00254001
0.00295504
0.00335373
0.00374316
0.00412568
0.00449373
0.00484413
0.00517559
0.00549343
0.00579324
0.00606317
0.00630866
0.0065353
0.00673305
0.00689196
0.007022
0.00712978
0.00719662
0.00721862
0.00721663
0.00718704
0.00710601
0.00699
0.00685445
0.0066828
0.00647384
0.006238
0.00598464
0.00571075
0.00540472
0.00508336
0.004759
0.00441338
0.00404787
0.00368167
0.00330949
0.00292149
0.00252769
0.00213411
0.00173418
0.00132796
0.000921915
0.000515949
0.000108163
-0.000298908
-0.000702616
-0.00110338
-0.00150023
-0.00189127
-0.00227511
-0.00265127
-0.00301799
-0.00337414
-0.00371827
-0.00404953
-0.00436617
-0.00466743
-0.00495171
-0.00521829
-0.00546563
-0.00569322
-0.00589958
-0.00608436
-0.00624625
-0.00638511
-0.00649974
-0.0065902
-0.00665554
-0.00669597
-0.00671069
-0.00670012
-0.00666374
-0.00660207
-0.00651473
-0.00640249
-0.00626527
-0.0061038
-0.00591823
-0.0057096
-0.00547827
-0.00522517
-0.00495107
-0.00465714
-0.00434419
-0.00401351
-0.00366634
-0.00330377
-0.00292731
-0.00253874
-0.00213895
-0.00172898
-0.00131202
-0.000889474
-0.000460201
-2.7183e-05
0.00040447
0.000838971
0.00126841
0.00169114
0.00211628
0.00253738
0.00294202
0.00334075
0.00373665
0.00411564
0.00447852
0.00482997
0.00516569
0.00548345
0.00577815
0.00605033
0.00629951
0.00652379
0.00671903
0.00687886
0.00701059
0.0071118
0.00717543
0.00720606
0.00719718
0.00715588
0.00708662
0.0069751
0.00682822
0.00665586
0.0064581
0.00622852
0.00596582
0.00569171
0.00540392
0.0050832
0.00474791
0.00441259
0.00405893
0.00368642
0.00331282
0.00293471
0.00254334
0.00214639
0.00174959
0.0013479
0.000941646
0.000535752
0.000130718
-0.000274835
-0.000678289
-0.00107785
-0.00147314
-0.0018634
-0.0022464
-0.00262145
-0.00298719
-0.00334256
-0.00368578
-0.0040162
-0.00433206
-0.00463259
-0.00491615
-0.00518214
-0.00542888
-0.00565598
-0.00586189
-0.00604633
-0.00620792
-0.00634659
-0.0064611
-0.00655154
-0.00661691
-0.00665746
-0.00667239
-0.00666213
-0.00662613
-0.00656487
-0.00647812
-0.00636655
-0.00623006
-0.00606939
-0.00588489
-0.00567733
-0.00544716
-0.00519536
-0.00492282
-0.00463037
-0.00431907
-0.00399019
-0.00364483
-0.00328413
-0.0029099
-0.00252308
-0.00212496
-0.00171782
-0.00130336
-0.000881058
-0.000453902
-2.60148e-05
0.000407239
0.00083596
0.00125986
0.00168675
0.00211141
0.00252138
0.00292583
0.00333212
0.00372173
0.00409416
0.00446054
0.00481476
0.00515121
0.00546458
0.00575761
0.00603906
0.0062915
0.00650827
0.00669992
0.00687193
0.00700684
0.00709405
0.00715473
0.00719587
0.00718964
0.00713385
0.00706347
0.00696372
0.00681647
0.00663938
0.00643849
0.00621771
0.00596551
0.00568101
0.00539147
0.0050891
0.00475536
0.00441074
0.00406586
0.00370412
0.00332706
0.0029484
0.00256517
0.00217131
0.00177311
0.00137435
0.000972216
0.000567002
0.000162747
-0.000240239
-0.000641998
-0.00104091
-0.00143484
-0.00182361
-0.00220572
-0.00257991
-0.0029446
-0.00329913
-0.00364165
-0.00397135
-0.00428657
-0.00458657
-0.00486963
-0.0051352
-0.00538163
-0.00560845
-0.00581417
-0.00599851
-0.00616009
-0.00629875
-0.00641341
-0.00650404
-0.00656971
-0.00661057
-0.006626
-0.00661623
-0.00658085
-0.00652028
-0.00643443
-0.00632369
-0.00618827
-0.00602876
-0.00584561
-0.00563935
-0.0054108
-0.00516072
-0.00488999
-0.00459938
-0.00429026
-0.00396345
-0.00362031
-0.00326202
-0.00289008
-0.0025054
-0.00211021
-0.00170569
-0.00129267
-0.000873031
-0.000450356
-2.36251e-05
0.000405077
0.000828361
0.00125516
0.00168091
0.00209323
0.00250252
0.00291652
0.00331344
0.00369131
0.00407315
0.00444385
0.00478961
0.00512243
0.00544234
0.00574401
0.00601854
0.00626821
0.00649707
0.00669083
0.00685736
0.00698796
0.00708633
0.00715169
0.00716945
0.00716861
0.0071344
0.00704697
0.00693627
0.00680249
0.00663632
0.00642817
0.00619537
0.00595974
0.00569021
0.00538477
0.00508145
0.00476883
0.00442523
0.0040717
0.00371927
0.00335237
0.0029713
0.00258871
0.00220233
0.00180726
0.00140835
0.00100936
0.000607888
0.000204881
-0.000196771
-0.000596094
-0.000993269
-0.00138614
-0.00177349
-0.0021542
-0.0025274
-0.00289115
-0.00324473
-0.00358649
-0.00391553
-0.00423014
-0.00452965
-0.00481234
-0.00507756
-0.00532379
-0.00555048
-0.00575618
-0.00594053
-0.00610228
-0.00624116
-0.00635616
-0.00644715
-0.00651335
-0.00655477
-0.00657091
-0.00656185
-0.00652742
-0.00646782
-0.00638311
-0.00627354
-0.0061396
-0.00598159
-0.0058001
-0.00559563
-0.00536918
-0.00512115
-0.00485265
-0.00456446
-0.00425791
-0.00393358
-0.00359319
-0.00323761
-0.00286837
-0.00248668
-0.0020945
-0.00169221
-0.00128222
-0.000866737
-0.000446101
-2.01456e-05
0.000399885
0.000824392
0.00124799
0.0016626
0.0020747
0.00249193
0.00289395
0.00327763
0.00366848
0.00405313
0.00440805
0.00475513
0.00509446
0.0054177
0.00572028
0.00598888
0.00624491
0.00648414
0.00668381
0.00684108
0.00696888
0.00707928
0.00714731
0.00715655
0.00714137
0.00711963
0.00703979
0.00692152
0.00678269
0.00661658
0.00642831
0.00619476
0.0059386
0.0056862
0.00540064
0.00508267
0.00476722
0.00444322
0.00409357
0.00373469
0.00337489
0.00300344
0.00262086
0.00223554
0.00184675
0.00145151
0.00105342
0.000654925
0.000255417
-0.000144512
-0.000542237
-0.000937087
-0.00132821
-0.00171433
-0.00209365
-0.00246551
-0.00282832
-0.00318099
-0.00352194
-0.00385031
-0.00416443
-0.00446347
-0.00474589
-0.00501088
-0.00525703
-0.00548369
-0.00568955
-0.00587405
-0.00603613
-0.00617537
-0.0062909
-0.00638241
-0.00644936
-0.00649151
-0.00650858
-0.00650048
-0.00646725
-0.00640884
-0.00632556
-0.00621756
-0.00608538
-0.00592916
-0.0057498
-0.00554759
-0.00532353
-0.00507795
-0.00481226
-0.00452687
-0.00422318
-0.00390183
-0.00356456
-0.00321197
-0.00284597
-0.00246742
-0.00207811
-0.00167914
-0.00127303
-0.000859937
-0.000441535
-2.09351e-05
0.000396253
0.000817032
0.00123128
0.0016448
0.00206238
0.00246732
0.00285452
0.00325279
0.00364847
0.00400638
0.004361
0.00472836
0.0050648
0.005377
0.00567723
0.00597015
0.00623531
0.00645413
0.00666583
0.00683795
0.0069743
0.00706517
0.00711328
0.00716588
0.00714199
0.00707776
0.0070187
0.00691957
0.00677538
0.00659029
0.00640514
0.00620589
0.00594283
0.0056669
0.00540334
0.00510451
0.00477544
0.0044509
0.00411847
0.00376313
0.00339986
0.00303531
0.00266039
0.0022761
0.00188955
0.00149975
0.00110488
0.000708092
0.00031156
-8.52809e-05
-0.000481187
-0.000874199
-0.00126328
-0.00164772
-0.0020258
-0.00239633
-0.00275805
-0.00310979
-0.00345002
-0.0037777
-0.00409141
-0.00439002
-0.00467226
-0.00493711
-0.00518333
-0.00541003
-0.00561618
-0.00580097
-0.00596355
-0.00610325
-0.00621949
-0.00631169
-0.00637954
-0.00642258
-0.0064408
-0.00643387
-0.00640203
-0.00634506
-0.00626353
-0.00615733
-0.00602719
-0.00587316
-0.0056963
-0.00549663
-0.00527532
-0.0050327
-0.00477013
-0.00448781
-0.00418738
-0.0038694
-0.00353548
-0.0031862
-0.00282363
-0.00244838
-0.0020625
-0.00166715
-0.00126416
-0.000853996
-0.000440196
-2.37038e-05
0.000389417
0.000802667
0.00121566
0.00163074
0.00203574
0.00242881
0.00282957
0.00322825
0.00359123
0.00395338
0.00433675
0.00468317
0.00500499
0.00533414
0.00564314
0.0059471
0.00620734
0.00643398
0.00665447
0.0068409
0.0069848
0.00706843
0.00710216
0.00714075
0.00714447
0.00706945
0.00699294
0.00688644
0.00676136
0.00660468
0.0063833
0.00617449
0.00596033
0.00568273
0.0053914
0.00511142
0.00480348
0.00446947
0.00413522
0.00379449
0.00343623
0.00306974
0.00270032
0.00232315
0.00193837
0.00155083
0.0011607
0.000767245
0.000372499
-2.15523e-05
-0.000414694
-0.000805802
-0.00119322
-0.00157574
-0.00195239
-0.00232168
-0.00268234
-0.00303308
-0.00337266
-0.00369968
-0.00401301
-0.00431129
-0.00459343
-0.00485817
-0.00510458
-0.00533143
-0.00553797
-0.00572314
-0.00588634
-0.00602663
-0.00614369
-0.00623672
-0.0063056
-0.00634971
-0.00636923
-0.00636364
-0.00633338
-0.00627813
-0.00619855
-0.0060944
-0.00596661
-0.00581513
-0.00564098
-0.00544416
-0.00522601
-0.00498664
-0.00472735
-0.00444846
-0.00415161
-0.00383712
-0.00350669
-0.00316097
-0.0028019
-0.00243017
-0.00204793
-0.00165587
-0.00125623
-0.000850415
-0.000440407
-2.59638e-05
0.000378351
0.000788775
0.00119989
0.00160507
0.00200083
0.00240126
0.00279986
0.00316811
0.00353228
0.00392717
0.00428366
0.00459615
0.00495094
0.00530117
0.00560791
0.00588878
0.0061613
0.00646169
0.00666171
0.00683983
0.00697198
0.00708132
0.00716665
0.00710288
0.00710368
0.0070861
0.00698617
0.00685948
0.00671517
0.00659574
0.00640838
0.00615493
0.00593622
0.00570462
0.00541196
0.0051126
0.00481971
0.00450128
0.00416251
0.00382274
0.00347468
0.00311241
0.00274359
0.00237134
0.0019917
0.00160654
0.00121906
0.000829476
0.000437504
4.56255e-05
-0.000345119
-0.000733846
-0.00111956
-0.00150038
-0.00187555
-0.00224351
-0.00260318
-0.00295294
-0.00329187
-0.00361827
-0.00393125
-0.00422923
-0.00451134
-0.00477604
-0.00502266
-0.00524975
-0.00545675
-0.00564236
-0.00580625
-0.00594724
-0.0060652
-0.00615914
-0.00622917
-0.00627448
-0.0062954
-0.00629132
-0.00626282
-0.00620946
-0.00613198
-0.00603016
-0.00590496
-0.00575622
-0.00558501
-0.00539139
-0.00517659
-0.00494061
-0.00468485
-0.00440966
-0.00411646
-0.00380553
-0.00347877
-0.00313676
-0.00278126
-0.00241305
-0.00203437
-0.00164599
-0.00125018
-0.000848045
-0.000441362
-3.13974e-05
0.000367027
0.000773794
0.00117634
0.00157444
0.00197303
0.00236688
0.0027399
0.00311103
0.00350236
0.00385818
0.00417226
0.00454691
0.00491779
0.00521054
0.00553458
0.0058439
0.00614902
0.0064495
0.00666356
0.0068731
0.0070113
0.00710179
0.00719626
0.00715368
0.00707359
0.00703591
0.00695207
0.00688812
0.00672154
0.00651992
0.00639478
0.00619911
0.00592755
0.00568632
0.00543872
0.00514181
0.00483222
0.00452584
0.00420077
0.00385825
0.00351125
0.00315787
0.00279277
0.00242129
0.002046
0.00166556
0.00128007
0.000892957
0.000504361
0.000115061
-0.000273899
-0.000660379
-0.00104413
-0.00142335
-0.00179719
-0.00216377
-0.00252247
-0.0028713
-0.00320958
-0.00353541
-0.00384808
-0.00414576
-0.00442787
-0.00469259
-0.00493945
-0.0051668
-0.0053743
-0.00556042
-0.00572501
-0.00586674
-0.00598564
-0.00608058
-0.0061518
-0.0061984
-0.0062208
-0.00621837
-0.00619172
-0.00614038
-0.00606519
-0.00596589
-0.00584339
-0.00569755
-0.00552951
-0.00533922
-0.0051278
-0.00489539
-0.00464335
-0.00437181
-0.0040822
-0.00377502
-0.00345195
-0.00311349
-0.00276153
-0.00239697
-0.00202186
-0.0016372
-0.00124509
-0.000846583
-0.000444226
-3.92739e-05
0.000353688
0.000754171
0.0011512
0.00154589
0.0019365
0.00231531
0.00268674
0.00306711
0.00342726
0.00374764
0.00411273
0.00449804
0.00478043
0.00509804
0.00549466
0.00583477
0.0061247
0.00630361
0.00668248
0.00696853
0.00715815
0.00720119
0.00708943
0.00721563
0.00712755
0.0070169
0.00690788
0.00681843
0.00675063
0.00653972
0.0063341
0.00618795
0.00596551
0.00569464
0.00543967
0.00516927
0.00486501
0.00455238
0.0042343
0.00390019
0.0035538
0.00320263
0.00284307
0.00247501
0.00210148
0.00172441
0.00134233
0.000957576
0.000571152
0.000184469
-0.000202348
-0.000586961
-0.00096902
-0.00134658
-0.00171909
-0.00208444
-0.00244218
-0.00279013
-0.00312777
-0.00345304
-0.00376544
-0.00406286
-0.00434493
-0.00460969
-0.00485679
-0.00508442
-0.00529238
-0.00547904
-0.00564432
-0.00578682
-0.00590665
-0.00600263
-0.00607504
-0.00612297
-0.00614691
-0.00614618
-0.00612142
-0.00607221
-0.00599937
-0.00590262
-0.00578287
-0.00564007
-0.0054752
-0.00528823
-0.00508025
-0.00485147
-0.00460301
-0.00433507
-0.0040491
-0.00374564
-0.00342608
-0.00309112
-0.00274275
-0.00238188
-0.00201025
-0.00162916
-0.00124096
-0.000846677
-0.000448378
-4.7619e-05
0.0003389
0.000733715
0.0011259
0.00151313
0.00189199
0.00226594
0.00263838
0.00299359
0.00332338
0.0036811
0.00405146
0.00431695
0.00462587
0.00508713
0.00540879
0.00570766
0.00603821
0.00625392
0.00599878
0.00584004
0.00598403
0.00653235
0.00708524
0.00707583
0.00709079
0.00707796
0.00700786
0.00672474
0.00662817
0.006594
0.00636494
0.00613909
0.00596744
0.00573468
0.00545578
0.00518421
0.00490071
0.00458964
0.00426769
0.00394132
0.00360094
0.00324943
0.00289233
0.00252941
0.00215814
0.00178253
0.00140353
0.00102167
0.000636935
0.000252278
-0.000132353
-0.000515198
-0.000895801
-0.00127181
-0.00164305
-0.00200728
-0.00236409
-0.00271121
-0.00304826
-0.003373
-0.00368507
-0.00398229
-0.0042643
-0.0045291
-0.0047764
-0.00500432
-0.0052127
-0.00539988
-0.00556582
-0.00570909
-0.0058298
-0.00592681
-0.00600039
-0.00604967
-0.0060751
-0.00607608
-0.00605321
-0.00600615
-0.0059356
-0.0058414
-0.00572442
-0.00558459
-0.00542276
-0.00523906
-0.00503447
-0.00480911
-0.00456402
-0.00429964
-0.00401718
-0.0037171
-0.0034009
-0.00306951
-0.00272455
-0.00236703
-0.00199892
-0.00162165
-0.00123724
-0.000846935
-0.00045291
-5.695e-05
0.000324675
0.00071289
0.00109744
0.00147841
0.00185086
0.00221419
0.00257057
0.00291401
0.00324927
0.00358939
0.00388319
0.00417172
0.00457836
0.00487885
0.00512799
0.00514761
0.00478269
0.00420961
0.00370491
0.0035308
0.00356424
0.00413502
0.00485663
0.00553849
0.00649772
0.00693077
0.00690488
0.00684266
0.00658685
0.00648513
0.00638738
0.00617725
0.00595947
0.00574215
0.00548903
0.00521373
0.00492867
0.00462712
0.00430888
0.00398213
0.00364551
0.00329841
0.00294259
0.0025813
0.00221322
0.00184011
0.00146261
0.00108277
0.000700287
0.000317432
-6.56939e-05
-0.000446904
-0.000825988
-0.00120069
-0.00157083
-0.00193402
-0.00228991
-0.00263629
-0.00297278
-0.00329704
-0.00360875
-0.00390578
-0.00418772
-0.00445255
-0.00469999
-0.00492819
-0.00513693
-0.0053246
-0.00549112
-0.00563512
-0.00575665
-0.00585465
-0.00592933
-0.00597991
-0.00600676
-0.00600939
-0.00598832
-0.00594329
-0.00587494
-0.00578319
-0.00566877
-0.0055317
-0.00537277
-0.00519215
-0.00499063
-0.00476845
-0.00452658
-0.00426551
-0.00398622
-0.00368939
-0.00337647
-0.00304843
-0.00270664
-0.00235245
-0.00198794
-0.00161439
-0.00123342
-0.00084723
-0.000458124
-6.67442e-05
0.000310039
0.000692743
0.00107132
0.00144337
0.00180734
0.00216197
0.00250345
0.00283547
0.00316227
0.00345954
0.00372849
0.0040808
0.00437757
0.00449904
0.00434784
0.00363979
0.0028332
0.0022919
0.00221879
0.00215007
0.00221955
0.00251499
0.00271635
0.00341238
0.0047001
0.00603239
0.00658206
0.00676881
0.00668369
0.00643936
0.00634178
0.00620444
0.00597907
0.00575159
0.00551857
0.00524836
0.00495787
0.00466301
0.00435196
0.00402411
0.00368791
0.00334548
0.00299209
0.00263116
0.00226509
0.00189459
0.00151852
0.00114006
0.00075945
0.000378188
-3.6118e-06
-0.000383418
-0.000761202
-0.00113481
-0.00150388
-0.00186613
-0.00222125
-0.00256695
-0.00290284
-0.0032267
-0.00353809
-0.0038349
-0.00411672
-0.00438159
-0.00462912
-0.00485756
-0.0050666
-0.00525472
-0.00542175
-0.00556641
-0.00568868
-0.00578759
-0.00586328
-0.00591505
-0.00594321
-0.00594737
-0.00592796
-0.00588479
-0.00581845
-0.00572893
-0.00561682
-0.00548226
-0.00532594
-0.00514804
-0.00494924
-0.00472996
-0.00449099
-0.00423279
-0.00395635
-0.0036626
-0.00335265
-0.00302752
-0.0026888
-0.002338
-0.0019767
-0.00160644
-0.00122934
-0.000847349
-0.000462142
-7.54987e-05
0.000296224
0.000674815
0.00104739
0.00140878
0.00176455
0.00211379
0.00244101
0.00274948
0.00305876
0.00334743
0.00360427
0.00387023
0.00407448
0.00388821
0.0030283
0.00235352
0.00216371
0.00228212
0.00226731
0.00233274
0.00241156
0.00243601
0.00260749
0.00266731
0.0031037
0.00430907
0.00591639
0.00653324
0.00658068
0.00650279
0.00634996
0.0061852
0.00599597
0.00578097
0.00554167
0.00527824
0.00499486
0.00469856
0.00438832
0.00406557
0.00373123
0.00338824
0.00303676
0.00267859
0.00231348
0.0019437
0.00156946
0.00119264
0.000813051
0.000432918
5.25455e-05
-0.0003261
-0.00070291
-0.00107556
-0.00144363
-0.00180511
-0.00215954
-0.00250465
-0.00283997
-0.00316346
-0.00347454
-0.00377116
-0.00405284
-0.00431773
-0.00456532
-0.00479394
-0.00500322
-0.00519173
-0.00535918
-0.00550443
-0.00562735
-0.00572706
-0.00580361
-0.00585645
-0.00588576
-0.00589125
-0.00587327
-0.00583175
-0.00576713
-0.0056795
-0.00556939
-0.005437
-0.00528285
-0.00510727
-0.00491085
-0.00469405
-0.0044575
-0.00420187
-0.00392805
-0.00363697
-0.00332962
-0.00300728
-0.00267151
-0.00232371
-0.00196529
-0.00159838
-0.00122512
-0.000846717
-0.000465016
-8.35822e-05
0.000286446
0.000658165
0.00102349
0.00138214
0.00172955
0.00205981
0.00237989
0.00268672
0.00295977
0.00320583
0.00347018
0.00368381
0.00361356
0.0029855
0.00233549
0.00222252
0.00220636
0.00225593
0.00234345
0.00243391
0.00254487
0.00256831
0.00254975
0.00266125
0.00287716
0.00318058
0.00460176
0.00611217
0.00654772
0.00649711
0.00632958
0.00618541
0.0060299
0.00580938
0.00555789
0.00530612
0.00503247
0.00473282
0.00442129
0.00410274
0.00377063
0.00342734
0.00307684
0.00272038
0.00235627
0.0019873
0.00161428
0.00123848
0.000859876
0.000480805
0.000101435
-0.000276399
-0.00065224
-0.00102404
-0.0013914
-0.00175223
-0.00210596
-0.00245059
-0.00278548
-0.00310861
-0.00341936
-0.00371584
-0.00399738
-0.00426225
-0.00450986
-0.00473866
-0.00494812
-0.00513694
-0.00530475
-0.00545048
-0.00557393
-0.00567432
-0.00575162
-0.00580535
-0.00583562
-0.00584223
-0.00582545
-0.00578528
-0.00572208
-0.00563601
-0.00552752
-0.00539688
-0.0052445
-0.00507082
-0.00487634
-0.00466153
-0.004427
-0.00417354
-0.0039019
-0.003613
-0.00330797
-0.00298819
-0.00265487
-0.00230957
-0.0019541
-0.00159035
-0.00121988
-0.000844862
-0.000467583
-8.99004e-05
0.000278498
0.000644562
0.00100459
0.00135906
0.00169764
0.00201643
0.00232966
0.00262355
0.00286986
0.0030886
0.00332541
0.00348542
0.00315527
0.00249396
0.00223416
0.00220414
0.00227704
0.00236454
0.00244607
0.00244702
0.00249847
0.00264834
0.00272749
0.00276957
0.00279121
0.00291219
0.00370336
0.00551915
0.00652549
0.00645664
0.00633903
0.00620427
0.00603536
0.00582932
0.00559098
0.00533345
0.0050559
0.0047628
0.00445534
0.00413422
0.00380172
0.00346144
0.00311208
0.00275498
0.00239174
0.00202427
0.00165184
0.00127639
0.000898802
0.000520639
0.000141901
-0.000235308
-0.000610319
-0.000981474
-0.00134825
-0.00170857
-0.00206172
-0.00240596
-0.00274046
-0.00306331
-0.00337377
-0.00367012
-0.00395154
-0.00421639
-0.004464
-0.00469291
-0.00490251
-0.00509158
-0.00525966
-0.00540579
-0.00552966
-0.00563059
-0.00570848
-0.0057629
-0.00579393
-0.00580142
-0.00578556
-0.00574642
-0.00568431
-0.00559944
-0.00549217
-0.00536283
-0.00521184
-0.00503962
-0.00484659
-0.00463334
-0.00440047
-0.00414871
-0.00387878
-0.00359177
-0.00328874
-0.00297101
-0.00263973
-0.00229677
-0.00194387
-0.00158262
-0.00121457
-0.000842728
-0.000469126
-9.44411e-05
0.000271081
0.00063577
0.00099287
0.00133701
0.00167071
0.0019932
0.00228727
0.00255037
0.00281043
0.00303665
0.0031751
0.00325562
0.00276817
0.00231255
0.00224445
0.002257
0.00236587
0.00239315
0.00244698
0.00253398
0.00258531
0.00264836
0.00275426
0.00283741
0.00283139
0.00301249
0.00321646
0.00478732
0.00641451
0.00639349
0.00638577
0.00624539
0.00603429
0.00583936
0.00561938
0.00535706
0.00507667
0.00478724
0.0044807
0.0041592
0.00382789
0.00348809
0.00313871
0.00278238
0.00241998
0.00205263
0.00168065
0.00130604
0.000929011
0.000551128
0.000173059
-0.000203493
-0.000578076
-0.000948842
-0.00131502
-0.00167493
-0.00202776
-0.00237166
-0.00270579
-0.00302846
-0.00333873
-0.00363493
-0.00391623
-0.00418109
-0.00442868
-0.00465767
-0.00486737
-0.00505663
-0.00522491
-0.00537132
-0.00549551
-0.00559685
-0.00567516
-0.00573011
-0.00576169
-0.00576981
-0.00575462
-0.00571623
-0.00565489
-0.00557087
-0.00546447
-0.00533608
-0.00518605
-0.00501484
-0.00482287
-0.00461078
-0.00437908
-0.00412854
-0.00385995
-0.00357441
-0.00327283
-0.0029566
-0.00262712
-0.00228608
-0.00193484
-0.00157552
-0.00121015
-0.000840603
-0.000468613
-9.73732e-05
0.000266735
0.000629397
0.000984116
0.00132462
0.00165374
0.00196969
0.00225692
0.00251952
0.00276601
0.00295933
0.00308458
0.00302112
0.00256685
0.00227511
0.00227253
0.00234203
0.00239713
0.00241177
0.00245851
0.00256826
0.00264889
0.00267816
0.00275035
0.00286234
0.00294367
0.00301736
0.00310351
0.00425239
0.00600179
0.00646504
0.00635672
0.00624022
0.00607007
0.0058603
0.00562526
0.00537025
0.00509783
0.00480515
0.00449571
0.0041767
0.00384714
0.0035062
0.00315662
0.00280141
0.00243944
0.00207188
0.00170031
0.00132628
0.000949535
0.000571862
0.000194252
-0.000181921
-0.000556197
-0.000926676
-0.00129249
-0.00165213
-0.0020047
-0.00234839
-0.00268229
-0.00300482
-0.00331494
-0.00361106
-0.00389227
-0.00415712
-0.0044047
-0.00463374
-0.0048435
-0.00503289
-0.0052013
-0.0053479
-0.0054723
-0.00557389
-0.00565249
-0.00570777
-0.00573971
-0.00574823
-0.00573346
-0.00569554
-0.00563469
-0.00555118
-0.00544534
-0.00531753
-0.0051681
-0.00499754
-0.00480627
-0.0045949
-0.00436395
-0.00411427
-0.0038466
-0.00356201
-0.00326142
-0.00294633
-0.00261808
-0.00227827
-0.00192825
-0.00157041
-0.00120675
-0.000838714
-0.000468155
-9.9108e-05
0.000266486
0.000625759
0.000977085
0.00132059
0.00164771
0.00195295
0.00224281
0.00250904
0.00272407
0.00292048
0.00308461
0.0029162
0.00253807
0.0022446
0.00231966
0.00236059
0.00236438
0.00245509
0.0025221
0.00255234
0.00262325
0.00272613
0.0027951
0.00284894
0.00297784
0.00300658
0.00303317
0.00410593
0.00570405
0.00653221
0.00639134
0.00622998
0.00607314
0.00586766
0.00563421
0.00538103
0.0051052
0.00481187
0.00450607
0.00418683
0.00385511
0.00351516
0.00316697
0.00281098
0.0024486
0.00208192
0.00171068
0.00133627
0.000959749
0.000582582
0.000205026
-0.000171179
-0.000545122
-0.000915362
-0.00128114
-0.00164066
-0.001993
-0.0023366
-0.00267045
-0.00299287
-0.00330289
-0.003599
-0.00388017
-0.00414499
-0.00439257
-0.00462165
-0.00483143
-0.00502087
-0.00518935
-0.00533605
-0.00546055
-0.00556228
-0.00564101
-0.00569645
-0.00572856
-0.00573729
-0.00572273
-0.00568502
-0.00562441
-0.00554117
-0.00543558
-0.00530804
-0.00515891
-0.00498867
-0.00479772
-0.0045867
-0.00435615
-0.00410689
-0.00383964
-0.00355549
-0.00325548
-0.00294101
-0.00261322
-0.00227396
-0.00192493
-0.00156789
-0.00120439
-0.000837289
-0.000468766
-9.99972e-05
0.000266486
0.000625759
0.000977085
0.00132059
0.00164771
0.00195295
0.00224281
0.00250904
0.00272407
0.00292048
0.00308461
0.0029162
0.00253807
0.0022446
0.00231966
0.00236059
0.00236438
0.00245509
0.0025221
0.00255234
0.00262325
0.00272613
0.0027951
0.00284894
0.00297784
0.00300658
0.00303317
0.00410593
0.00570405
0.00653221
0.00639134
0.00622998
0.00607314
0.00586766
0.00563421
0.00538103
0.0051052
0.00481187
0.00450607
0.00418683
0.00385511
0.00351516
0.00316697
0.00281098
0.0024486
0.00208192
0.00171068
0.00133627
0.000959749
0.000582582
0.000205026
-0.000171179
-0.000545122
-0.000915362
-0.00128114
-0.00164066
-0.001993
-0.0023366
-0.00267045
-0.00299287
-0.00330289
-0.003599
-0.00388017
-0.00414499
-0.00439257
-0.00462165
-0.00483143
-0.00502087
-0.00518935
-0.00533605
-0.00546055
-0.00556228
-0.00564101
-0.00569645
-0.00572856
-0.00573729
-0.00572273
-0.00568502
-0.00562441
-0.00554117
-0.00543558
-0.00530804
-0.00515891
-0.00498867
-0.00479772
-0.0045867
-0.00435615
-0.00410689
-0.00383964
-0.00355549
-0.00325548
-0.00294101
-0.00261322
-0.00227396
-0.00192493
-0.00156789
-0.00120439
-0.000837289
-0.000468766
-9.99972e-05
0.000266735
0.000629397
0.000984116
0.00132462
0.00165374
0.00196969
0.00225692
0.00251952
0.00276601
0.00295933
0.00308458
0.00302112
0.00256685
0.00227511
0.00227253
0.00234203
0.00239713
0.00241177
0.00245851
0.00256826
0.00264889
0.00267816
0.00275035
0.00286234
0.00294367
0.00301736
0.00310351
0.00425239
0.00600179
0.00646504
0.00635672
0.00624022
0.00607007
0.0058603
0.00562526
0.00537025
0.00509783
0.00480515
0.00449571
0.0041767
0.00384714
0.0035062
0.00315662
0.00280141
0.00243944
0.00207188
0.00170031
0.00132628
0.000949535
0.000571862
0.000194252
-0.000181921
-0.000556197
-0.000926676
-0.00129249
-0.00165213
-0.0020047
-0.00234839
-0.00268229
-0.00300482
-0.00331494
-0.00361106
-0.00389227
-0.00415712
-0.0044047
-0.00463374
-0.0048435
-0.00503289
-0.0052013
-0.0053479
-0.0054723
-0.00557389
-0.00565249
-0.00570777
-0.00573971
-0.00574823
-0.00573346
-0.00569554
-0.00563469
-0.00555118
-0.00544534
-0.00531753
-0.0051681
-0.00499754
-0.00480627
-0.0045949
-0.00436395
-0.00411427
-0.0038466
-0.00356201
-0.00326142
-0.00294633
-0.00261808
-0.00227827
-0.00192825
-0.00157041
-0.00120675
-0.000838714
-0.000468155
-9.9108e-05
0.000271081
0.00063577
0.00099287
0.00133701
0.00167071
0.0019932
0.00228727
0.00255037
0.00281043
0.00303665
0.0031751
0.00325562
0.00276817
0.00231255
0.00224445
0.002257
0.00236587
0.00239315
0.00244698
0.00253398
0.00258531
0.00264836
0.00275426
0.00283741
0.00283139
0.00301249
0.00321646
0.00478732
0.00641451
0.00639349
0.00638577
0.00624539
0.00603429
0.00583936
0.00561938
0.00535706
0.00507667
0.00478724
0.0044807
0.0041592
0.00382789
0.00348809
0.00313871
0.00278238
0.00241998
0.00205263
0.00168065
0.00130604
0.000929011
0.000551128
0.000173059
-0.000203493
-0.000578076
-0.000948842
-0.00131502
-0.00167493
-0.00202776
-0.00237166
-0.00270579
-0.00302846
-0.00333873
-0.00363493
-0.00391623
-0.00418109
-0.00442868
-0.00465767
-0.00486737
-0.00505663
-0.00522491
-0.00537132
-0.00549551
-0.00559685
-0.00567516
-0.00573011
-0.00576169
-0.00576981
-0.00575462
-0.00571623
-0.00565489
-0.00557087
-0.00546447
-0.00533608
-0.00518605
-0.00501484
-0.00482287
-0.00461078
-0.00437908
-0.00412854
-0.00385995
-0.00357441
-0.00327283
-0.0029566
-0.00262712
-0.00228608
-0.00193484
-0.00157552
-0.00121015
-0.000840603
-0.000468613
-9.73732e-05
0.000278498
0.000644562
0.00100459
0.00135906
0.00169764
0.00201643
0.00232966
0.00262355
0.00286986
0.0030886
0.00332541
0.00348542
0.00315527
0.00249396
0.00223416
0.00220414
0.00227704
0.00236454
0.00244607
0.00244702
0.00249847
0.00264834
0.00272749
0.00276957
0.00279121
0.00291219
0.00370336
0.00551915