# vtk DataFile Version 3.0
fluid_state
ASCII
DATASET RECTILINEAR_GRID
DIMENSIONS 100 40 1
X_COORDINATES 100 float
0.5 1.5 2.5 3.5 4.5 5.5 6.5 7.5 8.5 9.5 10.5 11.5 12.5 13.5 14.5 15.5 16.5 17.5 18.5 19.5 20.5 21.5 22.5 23.5 24.5 25.5 26.5 27.5 28.5 29.5 30.5 31.5 32.5 33.5 34.5 35.5 36.5 37.5 38.5 39.5 40.5 41.5 42.5 43.5 44.5 45.5 46.5 47.5 48.5 49.5 50.5 51.5 52.5 53.5 54.5 55.5 56.5 57.5 58.5 59.5 60.5 61.5 62.5 63.5 64.5 65.5 66.5 67.5 68.5 69.5 70.5 71.5 72.5 73.5 74.5 75.5 76.5 77.5 78.5 79.5 80.5 81.5 82.5 83.5 84.5 85.5 86.5 87.5 88.5 89.5 90.5 91.5 92.5 93.5 94.5 95.5 96.5 97.5 98.5 99.5 
Y_COORDINATES 40 float
0.5 1.5 2.5 3.5 4.5 5.5 6.5 7.5 8.5 9.5 10.5 11.5 12.5 13.5 14.5 15.5 16.5 17.5 18.5 19.5 20.5 21.5 22.5 23.5 24.5 25.5 26.5 27.5 28.5 29.5 30.5 31.5 32.5 33.5 34.5 35.5 36.5 37.5 38.5 39.5 
Z_COORDINATES 1 float
0
POINT_DATA 4000
SCALARS density_difference float 1
LOOKUP_TABLE default
-0.00668637
-0.0071248
-0.00754502
-0.00795533
-0.00832539
-0.00865953
-0.00898451
-0.00927564
-0.00952049
-0.00974089
-0.00993051
-0.0100785
-0.0101834
-0.010249
-0.0102787
-0.0102563
-0.0101877
-0.0100811
-0.00992245
-0.00972297
-0.00948881
-0.00920897
-0.00890216
-0.00857318
-0.00821272
-0.00783731
-0.00745257
-0.00704464
-0.00662635
-0.00620602
-0.00575933
-0.00529576
-0.00483389
-0.00434507
-0.00382865
-0.00331194
-0.00277755
-0.00221413
-0.00164442
-0.0010675
-0.000471726
0.000131943
0.000736141
0.00134558
0.00195653
0.00256189
0.00316037
0.00374964
0.00432443
0.00488165
0.00541828
0.00593023
0.00641425
0.00686781
0.00728756
0.00767098
0.00801638
0.00832196
0.00858608
0.00880806
0.00898746
0.00912379
0.00921703
0.00926752
0.00927565
0.0092417
0.00916642
0.00905042
0.00889453
0.00869947
0.00846646
0.00819646
0.00789098
0.00755136
0.00717958
0.00677732
0.00634695
0.00589056
0.00541077
0.00490982
0.00439045
0.00385488
0.00330569
0.00274514
0.0021755
0.00159846
0.00101644
0.000431455
-0.000155432
-0.000742675
-0.00132698
-0.00190724
-0.00248414
-0.0030538
-0.00361133
-0.00415981
-0.00470002
-0.0052211
-0.0057216
-0.00621299
-0.00664629
-0.00708746
-0.00752052
-0.0079181
-0.00827652
-0.00862762
-0.00895322
-0.00922644
-0.00947708
-0.00970542
-0.00989066
-0.0100347
-0.0101399
-0.010216
-0.0102453
-0.0102171
-0.0101615
-0.0100607
-0.0099
-0.00971041
-0.00948344
-0.0092051
-0.0089045
-0.00858238
-0.00822329
-0.00784669
-0.00746635
-0.00706397
-0.00663589
-0.00621031
-0.00577768
-0.0053066
-0.00482722
-0.00435176
-0.00384027
-0.00330501
-0.00277313
-0.0022213
-0.00164342
-0.00106176
-0.000473935
0.000128567
0.000736479
0.00134311
0.00195062
0.00255591
0.00315342
0.0037401
0.00431341
0.0048692
0.00540422
0.00591473
0.00639762
0.00684983
0.00726897
0.00765185
0.0079969
0.00830228
0.00856692
0.00878927
0.00896937
0.00910651
0.009201
0.00925248
0.00926189
0.0092292
0.00915539
0.00904065
0.00888627
0.00869265
0.00846123
0.00819275
0.007889
0.00755113
0.0071812
0.00678084
0.0063525
0.00589816
0.0054204
0.00492153
0.0044041
0.00387047
0.0033231
0.00276424
0.00219588
0.00162041
0.00103975
0.000455388
-0.000131015
-0.000716458
-0.00130012
-0.00188148
-0.00245736
-0.00302371
-0.00358283
-0.00413402
-0.00466911
-0.00518617
-0.00569409
-0.00618566
-0.0065981
-0.00705106
-0.00747128
-0.00785568
-0.00823418
-0.00858802
-0.00888848
-0.00917063
-0.00943977
-0.00965539
-0.00983494
-0.00999021
-0.0101069
-0.0101793
-0.0102044
-0.0101974
-0.0101454
-0.0100367
-0.00989695
-0.00970935
-0.00947253
-0.00921392
-0.00891418
-0.00857733
-0.00823175
-0.00786198
-0.00746284
-0.00706407
-0.00665404
-0.00621002
-0.00576759
-0.00532133
-0.00483507
-0.00433928
-0.00384452
-0.00331663
-0.00276824
-0.00221889
-0.00165125
-0.00106451
-0.000473278
0.000124197
0.000730947
0.00133902
0.00194542
0.00254914
0.0031461
0.00373188
0.0043047
0.00485979
0.0053939
0.00590387
0.00638694
0.00683869
0.00725766
0.00764092
0.00798664
0.00829233
0.00855785
0.00878128
0.00896258
0.00910081
0.00919676
0.00924967
0.00926056
0.00922931
0.00915706
0.00904387
0.00889101
0.00869896
0.00846909
0.00820228
0.00790011
0.00756401
0.00719572
0.00679727
0.00637061
0.00591819
0.00544212
0.00494515
0.00442928
0.00389744
0.00335144
0.00279406
0.00222691
0.0016528
0.00107275
0.000489305
-9.58902e-05
-0.000680605
-0.00126474
-0.00184476
-0.00241846
-0.00298565
-0.00354615
-0.00409274
-0.00462498
-0.00514749
-0.00565469
-0.00613468
-0.00654611
-0.00698794
-0.00739709
-0.00779665
-0.00817825
-0.00850792
-0.00881568
-0.00911942
-0.00937254
-0.00958376
-0.00978172
-0.00994095
-0.0100627
-0.0101366
-0.0101734
-0.010185
-0.01013
-0.0100294
-0.00990369
-0.00971504
-0.00948217
-0.00922551
-0.00892133
-0.00858465
-0.00823631
-0.00786338
-0.00746464
-0.00705563
-0.00665059
-0.00621798
-0.00575718
-0.00531123
-0.0048476
-0.00434009
-0.00383442
-0.0033241
-0.00277718
-0.00221636
-0.00165407
-0.00107336
-0.000477309
0.000120986
0.00072402
0.00133245
0.00193991
0.00254224
0.00313868
0.00372469
0.00429688
0.00485161
0.00538597
0.0058957
0.00637868
0.00683098
0.00725043
0.00763405
0.00798068
0.00828751
0.00855403
0.00877867
0.00896147
0.00910121
0.00919858
0.0092531
0.0092656
0.00923595
0.00916521
0.00905371
0.00890243
0.00871209
0.00848384
0.00821891
0.00791848
0.00758436
0.00721797
0.00682165
0.00639692
0.00594668
0.00547252
0.0049776
0.00446346
0.00393343
0.00338881
0.00283291
0.0022669
0.00169372
0.0011143
0.000532016
-5.26367e-05
-0.000637306
-0.00122049
-0.00179857
-0.00237256
-0.00293987
-0.00349662
-0.00404051
-0.00457573
-0.00509605
-0.00559421
-0.00607544
-0.00647093
-0.00690093
-0.00732352
-0.0077261
-0.00808015
-0.00841365
-0.0087518
-0.00903534
-0.00927018
-0.00951471
-0.00972331
-0.00987301
-0.0100012
-0.0100967
-0.0101598
-0.0101613
-0.0101195
-0.0100527
-0.00991308
-0.00973253
-0.00952194
-0.00924054
-0.00893751
-0.00861504
-0.00824331
-0.00785575
-0.00747706
-0.0070602
-0.00662295
-0.00621331
-0.00577087
-0.00528983
-0.00483139
-0.00435434
-0.00383303
-0.00331151
-0.00278345
-0.00222499
-0.00165289
-0.00107612
-0.000485616
0.000115186
0.000719209
0.00132565
0.00193256
0.00253514
0.00313142
0.00371736
0.00428919
0.0048438
0.00537863
0.00588869
0.00637164
0.00682462
0.00724506
0.0076295
0.00797701
0.00828534
0.00855334
0.00877947
0.00896385
0.00910548
0.00920455
0.00926088
0.00927509
0.00924733
0.00917827
0.00906859
0.008919
0.00873059
0.00850411
0.00824118
0.00794267
0.00761076
0.00724642
0.00685239
0.00642981
0.00598187
0.00550973
0.00501689
0.00450453
0.0039762
0.00343293
0.00287829
0.00231305
0.00174068
0.00116198
0.000580189
-4.42244e-06
-0.000588043
-0.00116993
-0.00174779
-0.00232121
-0.00288483
-0.00343911
-0.00398396
-0.00451601
-0.0050277
-0.00552593
-0.00601155
-0.00637798
-0.00681633
-0.00723633
-0.00761505
-0.00797362
-0.00833217
-0.00864695
-0.00890964
-0.00918736
-0.00943778
-0.00962157
-0.00979893
-0.0099471
-0.0100572
-0.0101339
-0.0101395
-0.0101359
-0.0100814
-0.00994313
-0.00977826
-0.00956426
-0.00928339
-0.00898362
-0.00863873
-0.00826067
-0.00787205
-0.00746993
-0.00706294
-0.00662139
-0.00618113
-0.00576345
-0.00529499
-0.0048064
-0.00433986
-0.00384016
-0.00330599
-0.00277474
-0.00222893
-0.00165698
-0.00107651
-0.000489747
0.000109221
0.000714286
0.00131972
0.00192589
0.00252913
0.0031248
0.00371033
0.00428296
0.00483786
0.00537236
0.00588326
0.00636723
0.00682077
0.00724202
0.00762809
0.00797694
0.00828668
0.00855636
0.00878454
0.00897062
0.00911423
0.00921523
0.00927363
0.0092896
0.00926385
0.00919658
0.00908887
0.00894103
0.00875465
0.00853002
0.00826922
0.0079727
0.00764307
0.00728085
0.00688918
0.00646875
0.00602307
0.00555289
0.00506201
0.00455119
0.0040243
0.00348203
0.00292821
0.0023634
0.00179152
0.00121292
0.000631236
4.70841e-05
-0.000535582
-0.00111715
-0.00169384
-0.00226428
-0.00282541
-0.00337895
-0.0039193
-0.00444429
-0.0049548
-0.00545294
-0.00592706
-0.00628561
-0.0067199
-0.00711846
-0.00749742
-0.00787772
-0.0082152
-0.00850041
-0.00880568
-0.00910306
-0.00930552
-0.00951003
-0.00973379
-0.00988751
-0.0100059
-0.010084
-0.0101493
-0.0101709
-0.0100887
-0.0100051
-0.00984855
-0.0096091
-0.00936071
-0.00903824
-0.0086654
-0.00830064
-0.00790756
-0.00745521
-0.00704014
-0.00664377
-0.00616489
-0.00570928
-0.00529209
-0.00480778
-0.00430418
-0.00382316
-0.00330961
-0.0027649
-0.00221759
-0.00165777
-0.00107773
-0.000488222
0.000107653
0.000710562
0.00131651
0.00192212
0.00252491
0.00312056
0.00370599
0.00427873
0.00483437
0.00536911
0.00588058
0.00636557
0.00682036
0.00724254
0.00763019
0.00798072
0.00829233
0.00856374
0.00879414
0.00898224
0.00912807
0.00923105
0.00929173
0.00930965
0.00928603
0.0092206
0.00911501
0.00896899
0.0087847
0.00856196
0.00830337
0.00800887
0.00768152
0.00732144
0.00693211
0.00651374
0.00607017
0.00560177
0.00511253
0.00460288
0.00407695
0.00353511
0.00298154
0.00241664
0.00184452
0.00126543
0.000683792
9.98613e-05
-0.000482593
-0.00106333
-0.00163743
-0.00220552
-0.00276481
-0.00331395
-0.0038476
-0.00436971
-0.00487775
-0.00536559
-0.0058308
-0.00618235
-0.00659883
-0.00699992
-0.0073903
-0.00774586
-0.00806121
-0.00838837
-0.00870386
-0.00893626
-0.00917139
-0.00944993
-0.00962888
-0.00978523
-0.00995293
-0.0100586
-0.0101662
-0.0101675
-0.0101208
-0.010083
-0.00992087
-0.00969556
-0.00943618
-0.00907908
-0.00873154
-0.00833919
-0.00790719
-0.00748585
-0.00701855
-0.00659735
-0.00617417
-0.00568283
-0.00523189
-0.00479164
-0.0042917
-0.00378885
-0.00328817
-0.00275571
-0.00220451
-0.00164658
-0.00107165
-0.000483465
0.000110768
0.000711784
0.00131793
0.00192235
0.00252371
0.00311992
0.00370602
0.00427779
0.00483385
0.00536988
0.00588203
0.00636734
0.00682383
0.00724757
0.00763666
0.00798879
0.00830279
0.00857615
0.00880876
0.00899907
0.00914743
0.00925251
0.00931555
0.00933559
0.00931427
0.00925078
0.00914737
0.00900331
0.00882117
0.0086004
0.00834403
0.0080516
0.00772652
0.00736855
0.00698139
0.00656494
0.00612319
0.0056562
0.00516812
0.0046591
0.00413344
0.00359138
0.00303733
0.00247155
0.00189854
0.00131872
0.000736627
0.000152328
-0.000429522
-0.00100847
-0.0015806
-0.00214653
-0.00270109
-0.00324437
-0.00377453
-0.00429201
-0.00478968
-0.00527045
-0.00573617
-0.00606569
-0.00647974
-0.00688415
-0.00725703
-0.00759497
-0.00793477
-0.0082714
-0.00853166
-0.00877735
-0.00909495
-0.00932684
-0.00947258
-0.00970872
-0.00990005
-0.0100481
-0.0101289
-0.0101504
-0.0102339
-0.0101303
-0.00996835
-0.0097931
-0.00949196
-0.00916324
-0.008794
-0.00834605
-0.00788655
-0.00751584
-0.00704037
-0.00650966
-0.00612014
-0.00569008
-0.00517433
-0.00472263
-0.00427008
-0.00376032
-0.00324611
-0.00273035
-0.00218668
-0.00162564
-0.0010554
-0.000472588
0.000121486
0.000720468
0.00132398
0.00192799
0.00252896
0.00312371
0.00370992
0.00428206
0.00483813
0.00537436
0.00588775
0.00637391
0.00683156
0.00725674
0.00764782
0.00800165
0.00831786
0.00859343
0.00882858
0.00902114
0.0091721
0.00927956
0.00934515
0.00936741
0.00934852
0.00928721
0.00918608
0.00904409
0.00886421
0.00864553
0.00839137
0.00810106
0.00777819
0.00742224
0.00703704
0.0066223
0.006182
0.00571599
0.00522848
0.00471951
0.00419342
0.00365046
0.00309516
0.00252791
0.00195354
0.00137254
0.000789536
0.000205098
-0.000375839
-0.000953331
-0.00152335
-0.00208536
-0.00263487
-0.00317375
-0.00369857
-0.00420754
-0.00469791
-0.00517507
-0.00563274
-0.00595076
-0.00636465
-0.00675033
-0.00711108
-0.00746934
-0.00780682
-0.00809166
-0.00837022
-0.00869811
-0.00894194
-0.00910148
-0.00941229
-0.00967628
-0.0097773
-0.00997279
-0.0100832
-0.0102247
-0.0103051
-0.010162
-0.0100591
-0.00986568
-0.00954117
-0.00923853
-0.00876286
-0.00836387
-0.00793249
-0.00741899
-0.00701771
-0.0065259
-0.00600771
-0.00560432
-0.00515072
-0.0046583
-0.00419672
-0.0037155
-0.00320525
-0.00268791
-0.00215165
-0.00159638
-0.00103002
-0.000451629
0.000140628
0.000737205
0.0013371
0.00193974
0.00254091
0.00313374
0.00371876
0.00429153
0.00484802
0.00538363
0.00589792
0.00638544
0.00684416
0.0072704
0.00766364
0.00801945
0.00833776
0.00861557
0.00885346
0.00904846
0.00920206
0.00931208
0.00938038
0.00940508
0.00938871
0.00932977
0.00923106
0.00909131
0.00891373
0.00869727
0.00844535
0.00815719
0.0078364
0.00748239
0.00709892
0.00668558
0.00624628
0.00578082
0.00529329
0.00478378
0.00425661
0.00371214
0.00315503
0.002586
0.00200984
0.00142733
0.000843521
0.000259291
-0.000321026
-0.000896985
-0.00146371
-0.0020213
-0.00256705
-0.00310065
-0.00361731
-0.0041195
-0.00460612
-0.00507431
-0.00551976
-0.00583627
-0.00623896
-0.00661805
-0.00698262
-0.00733259
-0.00764656
-0.00794003
-0.00825515
-0.00853614
-0.00872448
-0.00901355
-0.00934706
-0.00946758
-0.00968716
-0.00995448
-0.0101201
-0.0102731
-0.0101831
-0.0103348
-0.0102579
-0.00993465
-0.00956812
-0.00910854
-0.00870113
-0.00839389
-0.00799174
-0.00732612
-0.00685436
-0.00651189
-0.00595758
-0.00546118
-0.00506909
-0.00459814
-0.00410948
-0.00364452
-0.00315021
-0.00263076
-0.00210256
-0.00155788
-0.000992652
-0.000418078
0.00016689
0.000761141
0.00136033
0.00195895
0.00255773
0.00315056
0.00373468
0.0043058
0.00486252
0.00539869
0.00591312
0.00640109
0.00686133
0.00728897
0.00768377
0.0080415
0.00836224
0.00864235
0.00888277
0.00908044
0.00923686
0.00934954
0.00942059
0.009448
0.0094343
0.00937789
0.0092817
0.00914442
0.0089692
0.00875507
0.00850541
0.00821941
0.00790059
0.00754839
0.00716639
0.00675418
0.00631548
0.00585018
0.00536218
0.00485171
0.00432301
0.00377677
0.00321759
0.00264654
0.00206843
0.00148468
0.000900139
0.000315875
-0.000263613
-0.000837217
-0.00140103
-0.00195514
-0.00249607
-0.00302331
-0.00353443
-0.00403108
-0.00450987
-0.00496976
-0.00541083
-0.00571938
-0.00611288
-0.00649543
-0.00685558
-0.0071826
-0.00749892
-0.00781878
-0.00809639
-0.00831985
-0.00861869
-0.00895567
-0.0090471
-0.00927185
-0.00980404
-0.00994241
-0.0100652
-0.0100845
-0.0100786
-0.00931674
-0.00854785
-0.00838786
-0.00851527
-0.00886693
-0.00876456
-0.00827308
-0.00777178
-0.00740058
-0.00674384
-0.00626263
-0.0058895
-0.00538706
-0.00492378
-0.00448784
-0.00402357
-0.0035567
-0.00307142
-0.00256303
-0.00204164
-0.00150509
-0.000946098
-0.000375602
0.00020355
0.000792833
0.0013902
0.00198601
0.00258127
0.00317273
0.00375638
0.00432583
0.00488174
0.00541834
0.00593307
0.00642116
0.00688254
0.00731169
0.00770797
0.0080675
0.00839057
0.0086731
0.00891601
0.0091164
0.00927566
0.00939117
0.00946502
0.00949527
0.00948433
0.00943064
0.00933703
0.00920234
0.00902957
0.00881785
0.00857038
0.00828654
0.00796957
0.00761904
0.00723825
0.00682695
0.00638855
0.00592314
0.00543436
0.00492275
0.00439235
0.00384429
0.003283
0.00271003
0.00213024
0.00154549
0.00096022
0.000376177
-0.000202023
-0.000773347
-0.00133483
-0.00188525
-0.00242091
-0.00294303
-0.00345024
-0.00394034
-0.00441075
-0.00486629
-0.00530461
-0.0056073
-0.0059992
-0.00637176
-0.00672343
-0.00705387
-0.00736542
-0.00766093
-0.007932
-0.00819345
-0.00848347
-0.00868558
-0.00887564
-0.00932905
-0.0095341
-0.00971867
-0.00927834
-0.00800052
-0.00706435
-0.00607663
-0.00537095
-0.00549339
-0.00545027
-0.00610797
-0.00720231
-0.00749627
-0.00739712
-0.00717779
-0.00670467
-0.00606614
-0.00570012
-0.00526625
-0.00477255
-0.00435905
-0.00391983
-0.00344611
-0.00297561
-0.00248919
-0.00197007
-0.00143717
-0.000892117
-0.00032831
0.00025021
0.000833218
0.00142392
0.00201855
0.00261227
0.00319971
0.00378147
0.00435098
0.00490582
0.00544126
0.00595638
0.00644531
0.0069071
0.00733724
0.00773528
0.0080967
0.00842164
0.00870654
0.00895208
0.00915516
0.00931708
0.00943554
0.00951226
0.00954539
0.00953719
0.00948636
0.00939538
0.00926332
0.00909298
0.00888371
0.00863838
0.00835663
0.00804139
0.00769242
0.00731267
0.00690216
0.00646394
0.00599835
0.00550878
0.00499614
0.00446424
0.00391459
0.0033515
0.00277714
0.00219601
0.00161037
0.00102476
0.000441486
-0.000135825
-0.000705602
-0.00126424
-0.00181086
-0.00234365
-0.00286191
-0.00336318
-0.00384812
-0.00431579
-0.00476558
-0.00519577
-0.00550111
-0.00589162
-0.00625381
-0.00659665
-0.00693089
-0.00723795
-0.00750998
-0.00777776
-0.0080533
-0.00827618
-0.00846052
-0.00886492
-0.0091035
-0.00896785
-0.00842512
-0.00675745
-0.00506602
-0.00419721
-0.00405261
-0.00372389
-0.00363464
-0.00362969
-0.00368916
-0.00438906
-0.00535191
-0.00639026
-0.00658997
-0.00640965
-0.00601737
-0.00547887
-0.00505747
-0.0046199
-0.00420573
-0.00378614
-0.00333521
-0.00287279
-0.00239667
-0.00189222
-0.00136746
-0.000828615
-0.000273539
0.000298934
0.000878465
0.0014641
0.00205436
0.00264596
0.00323116
0.00381026
0.00437853
0.00493271
0.00546735
0.00598213
0.00647156
0.00693391
0.00736499
0.00776437
0.00812757
0.00845436
0.00874153
0.00898945
0.00919518
0.00935973
0.00948104
0.0095605
0.00959651
0.00959101
0.00954296
0.00945455
0.00932512
0.00915711
0.0089502
0.00870692
0.00842716
0.0081135
0.007766
0.00738722
0.00697745
0.0065394
0.00607378
0.00558363
0.00507028
0.00453724
0.00398653
0.00342223
0.00284697
0.00226494
0.001679
0.00109349
0.00051087
-6.55784e-05
-0.000633539
-0.00118983
-0.0017339
-0.00226419
-0.00277875
-0.00327579
-0.0037575
-0.0042226
-0.00466697
-0.00509106
-0.00540083
-0.00578338
-0.00614908
-0.00648962
-0.00680653
-0.00710769
-0.00738161
-0.00762618
-0.00787966
-0.0081058
-0.00830788
-0.00857155
-0.00868312
-0.00792417
-0.00599402
-0.00456365
-0.00399828
-0.00398899
-0.00386776
-0.00379668
-0.00365348
-0.00366448
-0.00360622
-0.00332194
-0.00351391
-0.00444556
-0.00569782
-0.00613046
-0.00576757
-0.00518775
-0.00483866
-0.00447886
-0.00403238
-0.00362672
-0.00322343
-0.00277006
-0.00229422
-0.00181016
-0.00129946
-0.000761367
-0.000213298
0.000347717
0.000923859
0.0015081
0.00209254
0.00267957
0.00326416
0.00384153
0.00440696
0.00496009
0.00549495
0.00600905
0.00649819
0.00696129
0.00739351
0.00779372
0.00815841
0.00848711
0.00877639
0.00902631
0.00923454
0.00940163
0.00952557
0.00960754
0.00964631
0.00964337
0.00959792
0.00951189
0.00938494
0.00921911
0.00901439
0.008773
0.00849511
0.00818294
0.00783683
0.00745902
0.00705008
0.00661241
0.00614706
0.00565677
0.00514321
0.00460967
0.00405862
0.00349382
0.00291819
0.00233593
0.00175032
0.00116498
0.000582797
7.5618e-06
-0.000558671
-0.00111414
-0.00165665
-0.00218367
-0.00269583
-0.0031926
-0.00367096
-0.00413031
-0.00457388
-0.00499884
-0.00531057
-0.00568873
-0.00605203
-0.00639162
-0.00669587
-0.00697952
-0.0072608
-0.00751162
-0.00769965
-0.00786264
-0.00812927
-0.00831974
-0.00780803
-0.00603391
-0.00449433
-0.00413367
-0.00391486
-0.00384326
-0.00384609
-0.00387121
-0.00371816
-0.00355906
-0.00342603
-0.00326594
-0.00320004
-0.00334439
-0.00427603
-0.00526125
-0.00537406
-0.00497583
-0.00457313
-0.00425508
-0.00388472
-0.00349268
-0.00309116
-0.00266272
-0.00220645
-0.00172747
-0.00122638
-0.000700689
-0.000157458
0.00039946
0.000968404
0.00154791
0.00213042
0.0027141
0.00329542
0.00387117
0.00443553
0.00498712
0.00552121
0.00603509
0.00652436
0.00698762
0.0074206
0.00782181
0.00818788
0.008518
0.00880913
0.00906101
0.00927144
0.00944065
0.009567
0.00965127
0.00969245
0.00969174
0.00964866
0.00956476
0.00943997
0.00927608
0.00907332
0.0088336
0.00855738
0.00824658
0.00790179
0.00752497
0.00711698
0.00667994
0.00621517
0.0057252
0.00521198
0.00467862
0.0041278
0.00356312
0.00298786
0.00240596
0.00182079
0.00123598
0.000654782
8.03581e-05
-0.000485077
-0.00103933
-0.00158029
-0.00210643
-0.00261741
-0.00311222
-0.00358891
-0.00404711
-0.00448852
-0.00491125
-0.00523487
-0.00561445
-0.00596256
-0.00629436
-0.0066114
-0.00688828
-0.00713103
-0.00736341
-0.00755972
-0.00772486
-0.00791101
-0.007908
-0.0066399
-0.0048008
-0.00403132
-0.00386904
-0.00397253
-0.00397707
-0.00384909
-0.00370014
-0.0036552
-0.00357337
-0.00341865
-0.00324162
-0.0030135
-0.00296082
-0.00313983
-0.00402179
-0.00483839
-0.00477433
-0.0043735
-0.00402983
-0.00373161
-0.00336698
-0.00296788
-0.0025651
-0.0021295
-0.00165172
-0.00115728
-0.000646634
-0.000109364
0.000447005
0.00100994
0.00158277
0.0021639
0.00274612
0.00332378
0.00389727
0.00446143
0.00501187
0.00554466
0.00605834
0.00654805
0.00701125
0.00744465
0.00784682
0.00821411
0.00854528
0.00883796
0.00909153
0.0093038
0.00947474
0.00960314
0.00968935
0.00973254
0.00973369
0.0096926
0.00961048
0.0094875
0.00932522
0.00912412
0.00888582
0.00861103
0.00830146
0.00795792
0.00758213
0.00717518
0.00673901
0.00627513
0.0057859
0.00527351
0.00474086
0.00419078
0.0036268
0.00305241
0.00247118
0.00188663
0.00130265
0.000722414
0.000148281
-0.000416755
-0.000969731
-0.00150994
-0.00203686
-0.00254699
-0.00303912
-0.00351628
-0.00397657
-0.00441363
-0.00483113
-0.00517001
-0.00554662
-0.00589897
-0.00622494
-0.00652886
-0.00680522
-0.00703957
-0.0072451
-0.00744483
-0.00760032
-0.00760691
-0.00756434
-0.00586873
-0.0042735
-0.00399777
-0.00389351
-0.00397993
-0.00388475
-0.00381849
-0.00372566
-0.00364268
-0.00351008
-0.00335828
-0.00325268
-0.00295287
-0.00276643
-0.00276653
-0.00356739
-0.00447419
-0.00438914
-0.00420313
-0.00389708
-0.00358273
-0.00324769
-0.00288283
-0.00248271
-0.00205299
-0.00159485
-0.00110779
-0.000596257
-6.67836e-05
0.000481123
0.00104328
0.00161457
0.00219085
0.00277043
0.00334784
0.00391968
0.0044819
0.00503174
0.00556449
0.00607755
0.00656702
0.00703055
0.00746456
0.00786713
0.00823523
0.00856748
0.00886138
0.00911607
0.00932979
0.00950222
0.00963214
0.00971977
0.00976457
0.00976719
0.00972758
0.00964681
0.00952525
0.00936422
0.00916437
0.00892722
0.00865359
0.00834504
0.00800255
0.00762773
0.00722178
0.00678653
0.00632365
0.00583538
0.00532399
0.00479228
0.00424325
0.00368026
0.00310675
0.00252638
0.00194286
0.00135954
0.000779679
0.000206311
-0.000357925
-0.000911243
-0.00145156
-0.0019772
-0.00248728
-0.00298115
-0.00345708
-0.00391466
-0.00435374
-0.00477259
-0.0051239
-0.00549711
-0.00585643
-0.00618005
-0.00646343
-0.00673805
-0.00699307
-0.0071742
-0.00730026
-0.00744517
-0.00752582
-0.00692921
-0.00523014
-0.00405546
-0.00390568
-0.00402141
-0.00397063
-0.0038166
-0.00379376
-0.00376701
-0.0036222
-0.00344078
-0.00332068
-0.00324175
-0.00299334
-0.00262043
-0.00262
-0.00318877
-0.00398694
-0.00422954
-0.00404712
-0.0037536
-0.00346664
-0.00317208
-0.00282421
-0.00242088
-0.00199705
-0.001554
-0.00107338
-0.000561275
-3.58454e-05
0.000505774
0.0010662
0.00163692
0.00221039
0.00278758
0.00336462
0.00393565
0.0044965
0.00504571
0.00557851
0.00609121
0.00658044
0.00704419
0.00747863
0.00788146
0.00825011
0.00858308
0.00887782
0.00913328
0.00934798
0.00952141
0.00965237
0.00974098
0.00978685
0.00979047
0.00975185
0.00967201
0.00955141
0.00939122
0.00919224
0.00895587
0.00868308
0.00837528
0.00803359
0.00765953
0.00725441
0.00681997
0.00635797
0.00587059
0.00536012
0.00482932
0.00428125
0.00371916
0.00314646
0.0025669
0.00198416
0.00140132
0.000821789
0.000248953
-0.00031497
-0.000868695
-0.0014091
-0.00193406
-0.00244457
-0.00293986
-0.00341487
-0.00387062
-0.00431178
-0.00473226
-0.00510512
-0.00547934
-0.00582291
-0.00614815
-0.00645127
-0.00671018
-0.0069291
-0.00713426
-0.00729476
-0.00735378
-0.00735072
-0.00644189
-0.00482727
-0.0038563
-0.00401949
-0.00398341
-0.0038677
-0.00390618
-0.00380882
-0.00368126
-0.00358947
-0.00350636
-0.00334545
-0.00307228
-0.00298434
-0.00279994
-0.00234634
-0.0027576
-0.00366292
-0.00404392
-0.00389113
-0.00371693
-0.0034444
-0.00311775
-0.0027703
-0.00239729
-0.0019815
-0.00152558
-0.00104849
-0.00054904
-2.26949e-05
0.000522871
0.00107868
0.00164569
0.00222089
0.00279809
0.00337265
0.0039431
0.00450469
0.00505334
0.0055853
0.00609815
0.00658775
0.00705128
0.00748567
0.00788891
0.00825796
0.00859108
0.0088862
0.00914222
0.00935741
0.00953122
0.00966275
0.00975192
0.00979829
0.00980236
0.0097643
0.00968493
0.00956477
0.00940502
0.0092065
0.00897053
0.00869815
0.00839076
0.00804951
0.00767586
0.0072712
0.00683724
0.00637574
0.00588885
0.00537895
0.00484873
0.00430117
0.00373957
0.0031675
0.00258839
0.00200583
0.00142344
0.00084451
0.000271439
-0.000292827
-0.000845639
-0.00138583
-0.0019126
-0.00242288
-0.00291566
-0.00339262
-0.00385185
-0.00428833
-0.00470512
-0.00510512
-0.00547934
-0.00582291
-0.00614815
-0.00645127
-0.00671018
-0.0069291
-0.00713426
-0.00729476
-0.00735378
-0.00735072
-0.00644189
-0.00482727
-0.0038563
-0.00401949
-0.00398341
-0.0038677
-0.00390618
-0.00380882
-0.00368126
-0.00358947
-0.00350636
-0.00334545
-0.00307228
-0.00298434
-0.00279994
-0.00234634
-0.0027576
-0.00366292
-0.00404392
-0.00389113
-0.00371693
-0.0034444
-0.00311775
-0.0027703
-0.00239729
-0.0019815
-0.00152558
-0.00104849
-0.00054904
-2.26949e-05
0.000522871
0.00107868
0.00164569
0.00222089
0.00279809
0.00337265
0.0039431
0.00450469
0.00505334
0.0055853
0.00609815
0.00658775
0.00705128
0.00748567
0.00788891
0.00825796
0.00859108
0.0088862
0.00914222
0.00935741
0.00953122
0.00966275
0.00975192
0.00979829
0.00980236
0.0097643
0.00968493
0.00956477
0.00940502
0.0092065
0.00897053
0.00869815
0.00839076
0.00804951
0.00767586
0.0072712
0.00683724
0.00637574
0.00588885
0.00537895
0.00484873
0.00430117
0.00373957
0.0031675
0.00258839
0.00200583
0.00142344
0.00084451
0.000271439
-0.000292827
-0.000845639
-0.00138583
-0.0019126
-0.00242288
-0.00291566
-0.00339262
-0.00385185
-0.00428833
-0.00470512
-0.0051239
-0.00549711
-0.00585643
-0.00618005
-0.00646343
-0.00673805
-0.00699307
-0.0071742
-0.00730026
-0.00744517
-0.00752582
-0.00692921
-0.00523014
-0.00405546
-0.00390568
-0.00402141
-0.00397063
-0.0038166
-0.00379376
-0.00376701
-0.0036222
-0.00344078
-0.00332068
-0.00324175
-0.00299334
-0.00262043
-0.00262
-0.00318877
-0.00398694
-0.00422954
-0.00404712
-0.0037536
-0.00346664
-0.00317208
-0.00282421
-0.00242088
-0.00199705
-0.001554
-0.00107338
-0.000561275
-3.58454e-05
0.000505774
0.0010662
0.00163692
0.00221039
0.00278758
0.00336462
0.00393565
0.0044965
0.00504571
0.00557851
0.00609121
0.00658044
0.00704419
0.00747863
0.00788146
0.00825011
0.00858308
0.00887782
0.00913328
0.00934798
0.00952141
0.00965237
0.00974098
0.00978685
0.00979047
0.00975185
0.00967201
0.00955141
0.00939122
0.00919224
0.00895587
0.00868308
0.00837528
0.00803359
0.00765953
0.00725441
0.00681997
0.00635797
0.00587059
0.00536012
0.00482932
0.00428125
0.00371916
0.00314646
0.0025669
0.00198416
0.00140132
0.000821789
0.000248953
-0.00031497
-0.000868695
-0.0014091
-0.00193406
-0.00244457
-0.00293986
-0.00341487
-0.00387062
-0.00431178
-0.00473226
-0.00517001
-0.00554662
-0.00589897
-0.00622494
-0.00652886
-0.00680522
-0.00703957
-0.0072451
-0.00744483
-0.00760032
-0.00760691
-0.00756434
-0.00586873
-0.0042735
-0.00399777
-0.00389351
-0.00397993
-0.00388475
-0.00381849
-0.00372566
-0.00364268
-0.00351008
-0.00335828
-0.00325268
-0.00295287
-0.00276643
-0.00276653
-0.00356739
-0.00447419
-0.00438914
-0.00420313
-0.00389708
-0.00358273
-0.00324769
-0.00288283
-0.00248271
-0.00205299
-0.00159485
-0.00110779
-0.000596257
-6.67836e-05
0.000481123
0.00104328
0.00161457
0.00219085
0.00277043
0.00334784
0.00391968
0.0044819
0.00503174
0.00556449
0.00607755
0.00656702
0.00703055
0.00746456
0.00786713
0.00823523
0.00856748
0.00886138
0.00911607
0.00932979
0.00950222
0.00963214
0.00971977
0.00976457
0.00976719
0.00972758
0.00964681
0.00952525
0.00936422
0.00916437
0.00892722
0.00865359
0.00834504
0.00800255
0.00762773
0.00722178
0.00678653
0.00632365
0.00583538
0.00532399
0.00479228
0.00424325
0.00368026
0.00310675
0.00252638
0.00194286
0.00135954
0.000779679
0.000206311
-0.000357925
-0.000911243
-0.00145156
-0.0019772
-0.00248728
-0.00298115
-0.00345708
-0.00391466
-0.00435374
-0.00477259
-0.00523487
-0.00561445
-0.00596256
-0.00629436
-0.0066114
-0.00688828
-0.00713103
-0.00736341
-0.00755972
-0.00772486
-0.00791101
-0.007908
-0.0066399
-0.0048008
-0.00403132
-0.00386904
-0.00397253
-0.00397707
-0.00384909
-0.00370014
-0.0036552
-0.00357337
-0.00341865
-0.00324162
-0.0030135
-0.00296082
-0.00313983
-0.00402179
-0.00483839
-0.00477433
-0.0043735
-0.00402983
-0.00373161
-0.00336698