# vtk DataFile Version 3.0
fluid_state
ASCII
DATASET RECTILINEAR_GRID
DIMENSIONS 100 40 1
X_COORDINATES 100 float
0.5 1.5 2.5 3.5 4.5 5.5 6.5 7.5 8.5 9.5 10.5 11.5 12.5 13.5 14.5 15.5 16.5 17.5 18.5 19.5 20.5 21.5 22.5 23.5 24.5 25.5 26.5 27.5 28.5 29.5 30.5 31.5 32.5 33.5 34.5 35.5 36.5 37.5 38.5 39.5 40.5 41.5 42.5 43.5 44.5 45.5 46.5 47.5 48.5 49.5 50.5 51.5 52.5 53.5 54.5 55.5 56.5 57.5 58.5 59.5 60.5 61.5 62.5 63.5 64.5 65.5 66.5 67.5 68.5 69.5 70.5 71.5 72.5 73.5 74.5 75.5 76.5 77.5 78.5 79.5 80.5 81.5 82.5 83.5 84.5 85.5 86.5 87.5 88.5 89.5 90.5 91.5 92.5 93.5 94.5 95.5 96.5 97.5 98.5 99.5 
Y_COORDINATES 40 float
0.5 1.5 2.5 3.5 4.5 5.5 6.5 7.5 8.5 9.5 10.5 11.5 12.5 13.5 14.5 15.5 16.5 17.5 18.5 19.5 20.5 21.5 22.5 23.5 24.5 25.5 26.5 27.5 28.5 29.5 30.5 31.5 32.5 33.5 34.5 35.5 36.5 37.5 38.5 39.5 
Z_COORDINATES 1 float
0
POINT_DATA 4000
SCALARS density_difference float 1
LOOKUP_TABLE default
0.000757023
0.000764296
0.000770037
0.000773581
0.000771903
0.000762531
0.000745244
0.000726066
0.000697401
0.00064759
0.000595217
0.000538583
0.000452273
0.000357923
0.000264259
0.000146733
2.37334e-05
-9.55593e-05
-0.000226959
-0.000348912
-0.00045739
-0.000572898
-0.000665856
-0.000735436
-0.000808356
-0.000860108
-0.000887374
-0.000916227
-0.000931053
-0.000927214
-0.000923335
-0.000915049
-0.000895585
-0.000871497
-0.000848645
-0.000824118
-0.000793422
-0.000761645
-0.000733337
-0.00070354
-0.000670212
-0.000638628
-0.000609459
-0.000578724
-0.000547028
-0.000517455
-0.000488884
-0.000459384
-0.000430226
-0.000402598
-0.000375223
-0.000347559
-0.0003206
-0.000294503
-0.000268405
-0.000242409
-0.000217018
-0.000192024
-0.000167012
-0.000142241
-0.000117839
-9.35945e-05
-6.93735e-05
-4.53693e-05
-2.15366e-05
2.22527e-06
2.59477e-05
4.9537e-05
7.30594e-05
9.6526e-05
0.000119982
0.000143373
0.000166711
0.000190006
0.00021335
0.000236621
0.000259801
0.000283006
0.000306293
0.000329381
0.00035237
0.000375529
0.000398654
0.000421342
0.000444103
0.000467159
0.00048972
0.000511676
0.000534181
0.000556699
0.000577841
0.000598735
0.000620682
0.000641286
0.00065973
0.000679125
0.000698814
0.00071467
0.000728885
0.000744481
0.000747851
0.000755077
0.000760136
0.000761734
0.000757737
0.000743821
0.000727648
0.00071039
0.000670378
0.00061793
0.000577227
0.000511696
0.000414776
0.000331683
0.000243171
0.000119246
-5.24604e-06
-0.000112502
-0.000233679
-0.000362694
-0.000465141
-0.000564057
-0.000660821
-0.000725487
-0.000786787
-0.000846949
-0.000869028
-0.000884527
-0.000910748
-0.000911927
-0.000896233
-0.000888638
-0.000879357
-0.000856093
-0.000827321
-0.000805179
-0.000782033
-0.000750115
-0.000718211
-0.000691801
-0.000663032
-0.00063028
-0.000599831
-0.000572133
-0.000542396
-0.000511767
-0.000483258
-0.000455783
-0.000427158
-0.000398953
-0.000372095
-0.000345534
-0.000318529
-0.000292267
-0.000266675
-0.000241163
-0.000215597
-0.000190675
-0.000165989
-0.000141378
-0.000116849
-9.27569e-05
-6.86797e-05
-4.47181e-05
-2.0836e-05
2.78718e-06
2.64848e-05
5.00352e-05
7.35593e-05
9.69417e-05
0.000120417
0.000143722
0.000167064
0.000190333
0.000213659
0.000236795
0.000260047
0.000283235
0.000306381
0.000329349
0.000352531
0.000375541
0.000398354
0.000421108
0.00044412
0.000466633
0.000488843
0.000511263
0.000533708
0.000555058
0.000576279
0.00059796
0.000618769
0.00063784
0.000657391
0.00067693
0.000693857
0.000708948
0.00072471
0.000738301
0.000741908
0.000751805
0.000755037
0.00075159
0.000746748
0.000738318
0.000720435
0.000688649
0.000653274
0.000617175
0.000554352
0.000474206
0.00040853
0.000317338
0.000196572
9.47221e-05
-1.70164e-05
-0.000150573
-0.000264
-0.000377023
-0.000494411
-0.000579248
-0.000663548
-0.000746953
-0.000790705
-0.000828953
-0.000872286
-0.00088605
-0.000887765
-0.000894685
-0.000891164
-0.000875074
-0.000856243
-0.000840638
-0.000819384
-0.00079023
-0.000763397
-0.000739781
-0.00071062
-0.000679045
-0.00065109
-0.000623825
-0.000593197
-0.000563214
-0.000535527
-0.000507507
-0.00047816
-0.000450236
-0.000423304
-0.000396022
-0.000368545
-0.000342299
-0.000316291
-0.000290216
-0.000264357
-0.000239308
-0.000214187
-0.00018924
-0.000164521
-0.000140269
-0.000115876
-9.17575e-05
-6.77367e-05
-4.39972e-05
-2.012e-05
3.48909e-06
2.71193e-05
5.05428e-05
7.41056e-05
9.74424e-05
0.000120855
0.000144091
0.00016749
0.000190677
0.000213938
0.000237063
0.000260371
0.0002834
0.0003065
0.000329549
0.000352706
0.000375435
0.000398326
0.000421241
0.000443964
0.000466121
0.00048873
0.000511186
0.000532822
0.000554066
0.000576141
0.000597128
0.000616569
0.000636491
0.000656935
0.000674149
0.000689919
0.000707305
0.000722619
0.000732257
0.000742756
0.000748291
0.000751051
0.000751146
0.000744613
0.000733729
0.000715427
0.000682534
0.000650113
0.000609284
0.000536308
0.000463918
0.000396596
0.000287617
0.000167711
6.45228e-05
-5.36269e-05
-0.000194072
-0.000317985
-0.000420756
-0.000536554
-0.000634484
-0.00070306
-0.000777571
-0.000827362
-0.000847351
-0.000882439
-0.000903265
-0.000891224
-0.000887275
-0.000887199
-0.000872032
-0.00084676
-0.000825719
-0.000807931
-0.00078223
-0.00075104
-0.000725355
-0.000700587
-0.000670752
-0.000640164
-0.000613407
-0.000585896
-0.000556281
-0.000527509
-0.000500799
-0.000473137
-0.000445072
-0.000417989
-0.000391909
-0.000365137
-0.000338724
-0.000312978
-0.000287705
-0.00026204
-0.00023696
-0.000212175
-0.000187653
-0.000162943
-0.000138775
-0.000114629
-9.06994e-05
-6.66638e-05
-4.30445e-05
-1.92966e-05
4.22495e-06
2.785e-05
5.1178e-05
7.46918e-05
9.79565e-05
0.000121363
0.000144553
0.000167918
0.000191016
0.000214317
0.000237425
0.00026064
0.000283602
0.000306835
0.0003298
0.000352768
0.000375575
0.000398664
0.000421249
0.000443789
0.000466349
0.00048897
0.000510691
0.000532542
0.00055452
0.000575843
0.000595919
0.000616622
0.000636944
0.000655267
0.000672546
0.000690789
0.00070658
0.00071908
0.000731432
0.000744967
0.000748393
0.00075393
0.000756714
0.000748401
0.000732702
0.000715758
0.000692957
0.000651652
0.00058981
0.000536808
0.000473717
0.000356278
0.000248723
0.000163156
1.37868e-05
-0.000134594
-0.000243868
-0.000382601
-0.000514679
-0.000607957
-0.000716651
-0.000789433
-0.000825428
-0.000885523
-0.000919936
-0.000908864
-0.000916003
-0.000924471
-0.000908566
-0.000882856
-0.000866311
-0.000852518
-0.000824153
-0.000792032
-0.000770966
-0.000747254
-0.000714918
-0.000685303
-0.000661253
-0.000633183
-0.00060251
-0.000574952
-0.000549187
-0.000520685
-0.000492424
-0.000466072
-0.000439996
-0.000412596
-0.000386281
-0.000360756
-0.00033518
-0.000309166
-0.000284189
-0.00025933
-0.00023453
-0.000209657
-0.000185526
-0.000161222
-0.000137135
-0.000113025
-8.94015e-05
-6.55266e-05
-4.19458e-05
-1.82769e-05
5.05138e-06
2.86385e-05
5.19223e-05
7.53589e-05
9.85212e-05
0.000121944
0.00014507
0.000168375
0.000191447
0.00021478
0.000237786
0.000260983
0.000283996
0.000307221
0.000330037
0.000353096
0.000376013
0.000398957
0.000421405
0.00044426
0.000466866
0.000489101
0.00051092
0.000533388
0.000555035
0.00057578
0.000596645
0.000618065
0.000637196
0.0006553
0.000674561
0.000692776
0.000706384
0.000720246
0.000735401
0.000747912
0.000759301
0.000764075
0.000759738
0.000757303
0.00074828
0.000724464
0.000697644
0.000658416
0.000598092
0.000539586
0.000454839
0.000336984
0.000234162
0.000108885
-5.17352e-05
-0.000200405
-0.00033837
-0.000481257
-0.000632001
-0.000732247
-0.000818688
-0.000903971
-0.00094037
-0.000961487
-0.000994206
-0.000981803
-0.000961001
-0.000956513
-0.000935648
-0.000905063
-0.000875354
-0.000849842
-0.000825289
-0.000792801
-0.000761194
-0.000735199
-0.000708019
-0.000676801
-0.000648142
-0.000621699
-0.000594064
-0.000565098
-0.000538295
-0.000512
-0.000485064
-0.000457943
-0.000432373
-0.000406588
-0.00038069
-0.000354998
-0.000330287
-0.000305148
-0.000280279
-0.0002556
-0.0002315
-0.000207003
-0.00018295
-0.000158916
-0.000135254
-0.000111282
-8.77647e-05
-6.41035e-05
-4.0745e-05
-1.71311e-05
6.09301e-06
2.95555e-05
5.2719e-05
7.61318e-05
9.92262e-05
0.000122582
0.000145625
0.000168949
0.000191992
0.000215257
0.000238219
0.000261512
0.000284482
0.000307604
0.000330495
0.000353727
0.000376469
0.000399343
0.000422134
0.000445091
0.00046728
0.000489785
0.000512287
0.000534386
0.000555538
0.000577488
0.000598992
0.000619046
0.000638563
0.000659321
0.000677815
0.000693829
0.00071083
0.000727845
0.000738683
0.00075998
0.000772237
0.000775124
0.000773908
0.000774931
0.000766115
0.000742237
0.000709119
0.00067164
0.000624575
0.000536722
0.000423188
0.000347851
0.000217624
7.84882e-06
-0.000117561
-0.000257227
-0.00047906
-0.000630932
-0.000754073
-0.000897272
-0.000965397
-0.00103041
-0.00110307
-0.00107948
-0.00105463
-0.0010776
-0.00105076
-0.000995023
-0.000957406
-0.000937752
-0.000904786
-0.000853572
-0.000820227
-0.000797497
-0.000761623
-0.000723169
-0.00069671
-0.00067035
-0.000638008
-0.000607837
-0.000582963
-0.000555884
-0.0005272
-0.000500778
-0.000476203
-0.000449732
-0.000423565
-0.000398716
-0.000374329
-0.000348835
-0.000324208
-0.000300037
-0.000275973
-0.000251384
-0.000227623
-0.000203804
-0.000180127
-0.000156192
-0.000132879
-0.000109289
-8.59415e-05
-6.2393e-05
-3.9294e-05
-1.58558e-05
7.27826e-06
3.06373e-05
5.36478e-05
7.70019e-05
0.000100029
0.00012331
0.000146297
0.000169617
0.000192588
0.000215836
0.000238828
0.000262113
0.000285011
0.000308226
0.000331205
0.000354368
0.00037711
0.000400261
0.000423107
0.00044592
0.000468371
0.000491354
0.000513712
0.000535755
0.00055773
0.000580189
0.000601213
0.000621823
0.000642974
0.000663762
0.000681674
0.000699868
0.000718987
0.000734795
0.000746234
0.000777487
0.00078277
0.000792537
0.000803979
0.000796097
0.00078018
0.00077387
0.000744581
0.000688242
0.000634672
0.000553434
0.000441335
0.000322436
0.000151923
-1.76073e-05
-0.000189609
-0.000407361
-0.000599137
-0.000783382
-0.000924927
-0.001079
-0.00117442
-0.00119092
-0.00121655
-0.00123791
-0.00118899
-0.00115282
-0.00111166
-0.00106122
-0.00101724
-0.000959989
-0.000916075
-0.000878943
-0.000832365
-0.000789824
-0.000757841
-0.000724055
-0.000687848
-0.00065607
-0.000628409
-0.00059868
-0.000569262
-0.000542564
-0.000517031
-0.000489999
-0.000464223
-0.000439631
-0.000415077
-0.000389784
-0.000365765
-0.000341886
-0.000317932
-0.000293729
-0.00027044
-0.000246821
-0.000223337
-0.000199739
-0.000176715
-0.000153259
-0.000130107
-0.000106787
-8.38513e-05
-6.05197e-05
-3.75447e-05
-1.43162e-05
8.59376e-06
3.18574e-05
5.47803e-05
7.8004e-05
0.000100915
0.000124172
0.000147115
0.000170352
0.000193279
0.000216579
0.000239548
0.000262768
0.000285729
0.000309078
0.00033199
0.000355143
0.000378161
0.000401458
0.000424125
0.000447194
0.000470234
0.000493144
0.000515315
0.000538343
0.000561076
0.00058288
0.000604372
0.000627278
0.00064853
0.000668045
0.000688829
0.000710499
0.000727153
0.000742803
0.00076228
0.000793137
0.000805941
0.000820594
0.000827303
0.000823783
0.000819237
0.000807741
0.000776382
0.000727976
0.000656376
0.000576177
0.000479785
0.000281779
8.85941e-05
-8.48735e-06
-0.000289568
-0.000577271
-0.00070121
-0.000941494
-0.00115286
-0.00124388
-0.00137202
-0.00141264
-0.00133036
-0.00135817
-0.00135074
-0.00123412
-0.00116431
-0.00112376
-0.00107541
-0.000996699
-0.000929262
-0.00089359
-0.000848967
-0.000792744
-0.000752235
-0.000720535
-0.00068289
-0.00064525
-0.00061596
-0.000587767
-0.000557358
-0.000528842
-0.000504135
-0.00047852
-0.000452449
-0.00042785
-0.000404745
-0.000380503
-0.000356588
-0.000333386
-0.000310666
-0.000287103
-0.000264118
-0.000241253
-0.000218565
-0.00019534
-0.00017267
-0.000149787
-0.000127073
-0.00010399
-8.13566e-05
-5.83754e-05
-3.56238e-05
-1.25602e-05
1.01442e-05
3.32301e-05
5.60349e-05
7.91483e-05
0.000101959
0.000125144
0.000148013
0.000171208
0.000194134
0.000217401
0.000240329
0.000263619
0.000286649
0.000309954
0.000332923
0.000356314
0.000379393
0.00040265
0.000425648
0.000449118
0.000472095
0.000495181
0.000518204
0.000541611
0.000564167
0.000586927
0.000609888
0.000632757
0.000654258
0.00067639
0.000698755
0.000719665
0.000738665
0.000759181
0.000778553
0.000814044
0.000838733
0.000849854
0.00085085
0.000867208
0.000873523
0.000839472
0.000811471
0.000794916
0.0007109
0.000591342
0.000486
0.000318685
0.000107491
-0.000145218
-0.000396547
-0.000547769
-0.000840611
-0.00113487
-0.00135873
-0.00142811
-0.00150068
-0.00159036
-0.0015712
-0.00144577
-0.00138499
-0.00132215
-0.00127818
-0.00118172
-0.00107798
-0.00103416
-0.00097652
-0.000898283
-0.000845493
-0.000806591
-0.000757755
-0.000709447
-0.000674341
-0.000641282
-0.000604857
-0.00057236
-0.000545703
-0.000517724
-0.000489532
-0.00046448
-0.000441185
-0.000416297
-0.000392384
-0.000369901
-0.000347536
-0.000324211
-0.000301928
-0.000279851
-0.000257612
-0.000234909
-0.000212936
-0.000190628
-0.000168322
-0.000145733
-0.000123595
-0.000100998
-7.85719e-05
-5.58711e-05
-3.34795e-05
-1.06535e-05
1.19211e-05
3.48038e-05
5.74171e-05
8.04276e-05
0.000103167
0.000126226
0.000149018
0.000172203
0.000195102
0.000218301
0.000241262
0.000264626
0.000287643
0.000310956
0.000334122
0.000357645
0.000380697
0.000404162
0.000427604
0.00045116
0.000474169
0.000497971
0.000521672
0.000544947
0.000568001
0.000592447
0.000615981
0.000638468
0.000662049
0.000687125
0.000708954
0.000730124
0.000754994
0.000778488
0.000794472
0.000843777
0.000863808
0.000881464
0.000900088
0.000911924
0.000908764
0.000902846
0.000887705
0.000836521
0.000766182
0.000669972
0.000505606
0.000360591
0.000166053
-0.000265993
-0.000456828
-0.000520276
-0.000926597
-0.00115644
-0.00142811
-0.00171978
-0.00174873
-0.00162971
-0.00167842
-0.00154581
-0.00144612
-0.00142264
-0.00132403
-0.00122061
-0.00111856
-0.00105133
-0.00099187
-0.000917028
-0.000855141
-0.000807106
-0.000757427
-0.000708434
-0.000667836
-0.000631429
-0.000595335
-0.000561352
-0.000532077
-0.000504442
-0.000477112
-0.000451075
-0.000427575
-0.00040426
-0.000381029
-0.000358423
-0.000336976
-0.000315039
-0.000293228
-0.000271582
-0.00025037
-0.00022855
-0.000206953
-0.000185218
-0.00016365
-0.000141565
-0.000119743
-9.76184e-05
-7.56254e-05
-5.32148e-05
-3.10626e-05
-8.54298e-06
1.38038e-05
3.6512e-05
5.89816e-05
8.18264e-05
0.000104449
0.00012742
0.00015017
0.000173272
0.000196121
0.000219341
0.000242343
0.000265652
0.00028872
0.000312211
0.000335438
0.000358935
0.000382287
0.000406089
0.000429507
0.000453255
0.000477045
0.000501172
0.000524775
0.000549006
0.000573415
0.000597782
0.000621701
0.000646796
0.000671785
0.000696155
0.000720628
0.000746611
0.000771284
0.000794733
0.000819052
0.00087335
0.000892174
0.000921673
0.000952453
0.000956334
0.000958311
0.000985516
0.000966422
0.000885371
0.000846499
0.000786144
0.000577629
0.000368756
0.000209071
-7.06073e-05
-0.000454144
-0.000863929
-0.000824582
-0.000961046
-0.00130776
-0.00134063
-0.00164959
-0.00174818
-0.00152806
-0.00160954
-0.00161634
-0.00151718
-0.00129583
-0.0012235
-0.00119035
-0.00106919
-0.000976939
-0.000934288
-0.000875183
-0.000802618
-0.000751709
-0.000711962
-0.000664204
-0.000618867
-0.00058571
-0.000553798
-0.000519272
-0.000489537
-0.000465189
-0.00043946
-0.000413729
-0.000391155
-0.000370059
-0.000347525
-0.000325776
-0.000305243
-0.0002847
-0.00026326
-0.000242531
-0.00022187
-0.000200961
-0.000179546
-0.000158575
-0.000137228
-0.000115782
-9.39845e-05
-7.24442e-05
-5.04481e-05
-2.85094e-05
-6.25258e-06
1.58193e-05
3.83152e-05
6.06656e-05
8.33329e-05
0.000105824
0.000128708
0.000151404
0.000174409
0.000197244
0.000220468
0.000243461
0.000266764
0.000289949
0.000313512
0.000336776
0.000360426
0.000384064
0.000407977
0.000431548
0.000455773
0.000480034
0.000504289
0.000528413
0.000553704
0.000578699
0.000603315
0.000628715
0.000655737
0.000681197
0.000706425
0.000734538
0.000763352
0.000787833
0.000814501
0.000846707
0.000900326
0.000935302
0.000964674
0.000988203
0.00101813
0.001043
0.00103964
0.00102792
0.00102798
0.000960705
0.000814172
0.000710285
0.000537474
0.000243734
0.000181329
-0.000324112
-0.00112042
-0.000504243
-0.000448649
-0.00102733
-0.000536839
-0.000975359
-0.00120129
-0.00101379
-0.00158038
-0.00169563
-0.00144855
-0.00136458
-0.00125614
-0.00116233
-0.00107949
-0.00100712
-0.000937362
-0.00086766
-0.000809126
-0.000756764
-0.000704607
-0.000657586
-0.000615753
-0.000576551
-0.000541024
-0.000509518
-0.000479348
-0.000451435
-0.000426434
-0.000402849
-0.000379383
-0.000357566
-0.000336802
-0.000316139
-0.000295343
-0.000275411
-0.000255389
-0.000235196
-0.00021479
-0.000194708
-0.000174154
-0.000153514
-0.000132591
-0.000111761
-9.04382e-05
-6.91427e-05
-4.75164e-05
-2.59435e-05
-3.94973e-06
1.79524e-05
4.02013e-05
6.23593e-05
8.48841e-05
0.000107292
0.000130034
0.000152642
0.000175609
0.000198448
0.000221587
0.00024459
0.000267992
0.000291225
0.00031474
0.000338209
0.000362113
0.000385755
0.000409774
0.000433946
0.000458465
0.000482645
0.000507593
0.000532858
0.000558127
0.000583334
0.000610064
0.000636788
0.000663113
0.000690571
0.000720113
0.00074831
0.000776583
0.000808072
0.000840286
0.000869023
0.000931117
0.000974252
0.00100756
0.0010353
0.00108043
0.00111726
0.00111373
0.00112417
0.00115345
0.00106995
0.000928994
0.000879854
0.000729543
0.000396999
0.000128111
-0.000238285
-0.00058722
-0.000393994
-0.000276591
-0.000438669
-0.000472303
-0.0005953
-0.000478047
-0.00055497
-0.00106613
-0.00135179
-0.00136752
-0.00143365
-0.0012865
-0.00112771
-0.0010873
-0.00102506
-0.000929581
-0.000864478
-0.000818498
-0.000757635
-0.000695962
-0.000652535
-0.000613506
-0.000568894
-0.000529472
-0.000499773
-0.000470466
-0.000440018
-0.000414047
-0.000391999
-0.000369066
-0.000346461
-0.000326164
-0.000306783
-0.000286455
-0.000266634
-0.000247478
-0.000228184
-0.000208208
-0.000188551
-0.000168752
-0.000148672
-0.000128122
-0.000107716
-8.69086e-05
-6.59422e-05
-4.46112e-05
-2.3345e-05
-1.65874e-06
2.00576e-05
4.20961e-05
6.40772e-05
8.64406e-05
0.000108752
0.000131367
0.000153913
0.000176817
0.00019962
0.000222724
0.000245774
0.000269177
0.000292443
0.000316056
0.000339679
0.000363636
0.00038745
0.000411777
0.000436195
0.000460875
0.000485553
0.000511091
0.000536693
0.000562465
0.000588784
0.000616432
0.000643749
0.00067141
0.000700951
0.000731946
0.000761463
0.000792575
0.000827935
0.000862867
0.000893996
0.000964844
0.00100143
0.00104928
0.00109984
0.00113451
0.00117076
0.0012241
0.00124357
0.00120854
0.00121647
0.00122919
0.000997456
0.000734909
0.000490255
-8.64248e-07
-0.000238566
-0.000347025
-0.000510461
-0.000552007
-0.000355959
-0.000470974
-0.000411994
-0.000361637
-0.000399605
-0.000573002
-0.000843718
-0.00120749
-0.00130216
-0.0012275
-0.00117948
-0.00109391
-0.000996042
-0.000933164
-0.000878778
-0.000809096
-0.000749147
-0.000701992
-0.000650596
-0.000600784
-0.000562426
-0.000526689
-0.000489555
-0.000458046
-0.000432136
-0.000405772
-0.000380316
-0.000358533
-0.000338188
-0.000317068
-0.000297063
-0.000278333
-0.000259448
-0.000240025
-0.000221203
-0.000202362
-0.000183107
-0.000163474
-0.000144013
-0.000124115
-0.000103939
-8.3436e-05
-6.292e-05
-4.19395e-05
-2.08385e-05
5.8156e-07
2.20348e-05
4.38842e-05
6.57613e-05
8.79455e-05
0.000110123
0.000132652
0.000155165
0.000177959
0.000200722
0.00022385
0.000246922
0.000270256
0.000293617
0.000317387
0.000341026
0.000365
0.000389186
0.000413751
0.000438115
0.000463161
0.00048865
0.000514264
0.000539897
0.000567017
0.000594455
0.000621617
0.000650007
0.000680835
0.000710804
0.000740917
0.000775097
0.00081118
0.000844143
0.000880722
0.000924352
0.000992302
0.0010361
0.00108879
0.00114822
0.00119536
0.00123775
0.00130449
0.00135382
0.00134452
0.00135846
0.00137704
0.00127871
0.00096611
0.000234525
-0.000326739
-0.000353858
-0.000442844
-0.00048698
-0.000437584
-0.000391706
-0.000465963
-0.000383222
-0.000351707
-0.000372279
-0.000395787
-0.000425234
-0.000742903
-0.00114729
-0.00126169
-0.00117299
-0.00104526
-0.00098949
-0.000949225
-0.00087536
-0.000799649
-0.000748266
-0.000701296
-0.000646168
-0.000595527
-0.000556334
-0.000519962
-0.000482816
-0.000450186
-0.000423262
-0.0003975
-0.00037231
-0.000349857
-0.000329623
-0.00030939
-0.0002896
-0.000270879
-0.000252604
-0.000233886
-0.000215314
-0.000196835
-0.000178176
-0.000159021
-0.000139832
-0.000120341
-0.000100584
-8.03963e-05
-6.01203e-05
-3.94545e-05
-1.86046e-05
2.60404e-06
2.38875e-05
4.55374e-05
6.72759e-05
8.93254e-05
0.000111417
0.000133839
0.000156282
0.000179019
0.000201782
0.000224857
0.000247924
0.000271308
0.000294737
0.000318484
0.000342245
0.000366418
0.000390687
0.000415317
0.000440085
0.000465454
0.000490999
0.000517037
0.000543535
0.000570928
0.000598604
0.000627131
0.000656769
0.000687674
0.000719007
0.000751991
0.00078729
0.000824136
0.000861277
0.000901866
0.000947071
0.00101393
0.00107472
0.00112552
0.00117658
0.0012514
0.00132312
0.001368
0.00142519
0.00150744
0.00151422
0.00145953
0.00158555
0.00118167
3.48561e-05
-0.000484241
-0.0004425
-0.00040063
-0.000371875
-0.000415665
-0.000475779
-0.000372195
-0.000361244
-0.000420095
-0.000373038
-0.000264059
-0.000261387
-0.000473611
-0.000953544
-0.00118291
-0.00110614
-0.0010614
-0.00101003
-0.000921949
-0.000854951
-0.000813847
-0.000753969
-0.000685486
-0.000639261
-0.0006002
-0.000551621
-0.000508493
-0.00047798
-0.000447436
-0.000414946
-0.000388638
-0.000366945
-0.000343948
-0.000321644
-0.000302556
-0.000284222
-0.00026491
-0.000246404
-0.00022879
-0.000210751
-0.000192123
-0.000173831
-0.000155378
-0.000136409
-0.000117046
-9.76874e-05
-7.78841e-05
-5.77416e-05
-3.72745e-05
-1.66973e-05
4.30743e-06
2.54964e-05
4.69808e-05
6.85652e-05
9.05103e-05
0.000112551
0.000134862
0.000157235
0.000179946
0.000202704
0.000225707
0.000248788
0.000272239
0.000295681
0.000319398
0.00034333
0.000367653
0.0003919
0.000416656
0.000441875
0.000467363
0.000492867
0.000519542
0.000546796
0.000573993
0.000602033
0.000632329
0.000662553
0.000692773
0.00072634
0.000762633
0.000796891
0.000833717
0.000878127
0.000922268
0.000962622
0.00103547
0.00109256
0.00115489
0.00121867
0.00129033
0.00137197
0.00144143
0.00150498
0.00160424
0.00166283
0.00165125
0.00171494
0.000705287
-0.000307447
-0.000335118
-0.000403125
-0.000412525
-0.000405291
-0.000415392
-0.000411223
-0.000368201
-0.000387955
-0.000356073
-0.000324207
-0.000289037
-0.000291923
-0.000302986
-0.000688844
-0.00110679
-0.00108541
-0.00106227
-0.00098651
-0.000915115
-0.000863356
-0.000805906
-0.000743891
-0.000688955
-0.000638909
-0.000591105
-0.000547584
-0.000508181
-0.000472226
-0.000440177
-0.000411366
-0.000384658
-0.000360371
-0.00033832
-0.000317548
-0.000297599
-0.000278759
-0.000260533
-0.000242485
-0.000224515
-0.000206761
-0.000188822
-0.000170667
-0.00015225
-0.000133669
-0.00011467
-9.54009e-05
-7.57712e-05
-5.59055e-05
-3.56288e-05
-1.51383e-05
5.70348e-06
2.67326e-05
4.81088e-05
6.96313e-05
9.14665e-05
0.000113421
0.000135678
0.000158036
0.000180676
0.000203395
0.000226418
0.000249524
0.000272909
0.000296397
0.000320243
0.000344178
0.000368457
0.000392963
0.00041792
0.000443021
0.000468692
0.000494835
0.000521532
0.000548608
0.000576778
0.000605706
0.000635379
0.000666177
0.000698879
0.000732541
0.000767706
0.000805538
0.000845918
0.000887813
0.000933382
0.000982982
0.00105086
0.00110296
0.00117482
0.00125483
0.00131874
0.00139142
0.00149794
0.00160042
0.00166517
0.00173019
0.00186484
0.00157402
0.000295839
-0.000409451
-0.000289525
-0.000371015
-0.000430407
-0.000420372
-0.000374828
-0.000360681
-0.000409459
-0.000393311
-0.000309759
-0.000309737
-0.000323019
-0.000259074
-0.000218542
-0.000501136
-0.00098021
-0.0011067
-0.00101885
-0.000955457
-0.000930275
-0.000872168
-0.00078933
-0.000735405
-0.000696193
-0.000638836
-0.000582079
-0.000544471
-0.00050937
-0.00046846
-0.000434359
-0.000408874
-0.000382564
-0.000355942
-0.000334148
-0.000314855
-0.000294511
-0.000274988
-0.000257423
-0.000239919
-0.000221698
-0.000203974
-0.000186534
-0.000168567
-0.000150123
-0.00013175
-0.000113041
-9.38569e-05
-7.43084e-05
-5.4624e-05
-3.45017e-05
-1.40682e-05
6.67729e-06
2.75914e-05
4.88865e-05
7.03707e-05
9.21319e-05
0.000114025
0.000136247
0.00015859
0.000181179
0.000203881
0.000226914
0.000250023
0.000273377
0.000296909
0.000320814
0.000344746
0.00036904
0.000393709
0.000418745
0.000443818
0.000469674
0.00049615
0.000522831
0.000549954
0.000578757
0.000608081
0.000637481
0.000668904
0.000703017
0.000736578
0.000771402
0.000811784
0.000854167
0.000894252
0.000941205
0.000997873
0.00105571
0.00112186
0.00118449
0.00125317
0.0013405
0.00143033
0.00151372
0.00160849
0.00170894
0.00184792
0.0020058
0.00144035
0.000340132
-0.000373755
-0.000428323
-0.00038192
-0.000359701
-0.000387687
-0.000407392
-0.000398836
-0.000366009
-0.000339511
-0.000357788
-0.00032131
-0.000281613
-0.00024892
-0.000198215
-0.000444266
-0.000844027
-0.00105168
-0.00102507
-0.000984512
-0.000911235
-0.00084826
-0.000803967
-0.000745742
-0.000681091
-0.000632858
-0.000591075
-0.000543597
-0.000500916
-0.000468241
-0.000436863
-0.000405189
-0.000378614
-0.000356023
-0.000333342
-0.000311685
-0.000292596
-0.000274364
-0.000255763
-0.000237826
-0.000220545
-0.000203014
-0.000185083
-0.000167287
-0.000149291
-0.000130851
-0.000112031
-9.30672e-05
-7.36817e-05
-5.39403e-05
-3.38525e-05
-1.35579e-05
7.13589e-06
2.80678e-05
4.9307e-05
7.07181e-05
9.24638e-05
0.000114367
0.000136541
0.000158841
0.000181448
0.000204169
0.000227139
0.00025024
0.000273676
0.000297198
0.000321005
0.00034505
0.000369484
0.000393995
0.000418995
0.000444458
0.000470315
0.000496393
0.000523505
0.000551291
0.000579414
0.000608482
0.000639518
0.000671043
0.000703266
0.000738453
0.000776265
0.000813771
0.000854413
0.000901382
0.000949528
0.000997596
0.00105571
0.00112186
0.00118449
0.00125317
0.0013405
0.00143033
0.00151372
0.00160849
0.00170894
0.00184792
0.0020058
0.00144035
0.000340132
-0.000373755
-0.000428323
-0.00038192
-0.000359701
-0.000387687
-0.000407392
-0.000398836
-0.000366009
-0.000339511
-0.000357788
-0.00032131
-0.000281613
-0.00024892
-0.000198215
-0.000444266
-0.000844027
-0.00105168
-0.00102507
-0.000984512
-0.000911235
-0.00084826
-0.000803967
-0.000745742
-0.000681091
-0.000632858
-0.000591075
-0.000543597
-0.000500916
-0.000468241
-0.000436863
-0.000405189
-0.000378614
-0.000356023
-0.000333342
-0.000311685
-0.000292596
-0.000274364
-0.000255763
-0.000237826
-0.000220545
-0.000203014
-0.000185083
-0.000167287
-0.000149291
-0.000130851
-0.000112031
-9.30672e-05
-7.36817e-05
-5.39403e-05
-3.38525e-05
-1.35579e-05
7.13589e-06
2.80678e-05
4.9307e-05
7.07181e-05
9.24638e-05
0.000114367
0.000136541
0.000158841
0.000181448
0.000204169
0.000227139
0.00025024
0.000273676
0.000297198
0.000321005
0.00034505
0.000369484
0.000393995
0.000418995
0.000444458
0.000470315
0.000496393
0.000523505
0.000551291
0.000579414
0.000608482
0.000639518
0.000671043
0.000703266
0.000738453
0.000776265
0.000813771
0.000854413
0.000901382
0.000949528
0.000997596
0.00105086
0.00110296
0.00117482
0.00125483
0.00131874
0.00139142
0.00149794
0.00160042
0.00166517
0.00173019
0.00186484
0.00157402
0.000295839
-0.000409451
-0.000289525
-0.000371015
-0.000430407
-0.000420372
-0.000374828
-0.000360681
-0.000409459
-0.000393311
-0.000309759
-0.000309737
-0.000323019
-0.000259074
-0.000218542
-0.000501136
-0.00098021
-0.0011067
-0.00101885
-0.000955457
-0.000930275
-0.000872168
-0.00078933
-0.000735405
-0.000696193
-0.000638836
-0.000582079
-0.000544471
-0.00050937
-0.00046846
-0.000434359
-0.000408874
-0.000382564
-0.000355942
-0.000334148
-0.000314855
-0.000294511
-0.000274988
-0.000257423
-0.000239919
-0.000221698
-0.000203974
-0.000186534
-0.000168567
-0.000150123
-0.00013175
-0.000113041
-9.38569e-05
-7.43084e-05
-5.4624e-05
-3.45017e-05
-1.40682e-05
6.67729e-06
2.75914e-05
4.88865e-05
7.03707e-05
9.21319e-05
0.000114025
0.000136247
0.00015859
0.000181179
0.000203881
0.000226914
0.000250023
0.000273377
0.000296909
0.000320814
0.000344746
0.00036904
0.000393709
0.000418745
0.000443818
0.000469674
0.00049615
0.000522831