# vtk DataFile Version 3.0
fluid_state
ASCII
DATASET RECTILINEAR_GRID
DIMENSIONS 100 40 1
X_COORDINATES 100 float
0.5 1.5 2.5 3.5 4.5 5.5 6.5 7.5 8.5 9.5 10.5 11.5 12.5 13.5 14.5 15.5 16.5 17.5 18.5 19.5 20.5 21.5 22.5 23.5 24.5 25.5 26.5 27.5 28.5 29.5 30.5 31.5 32.5 33.5 34.5 35.5 36.5 37.5 38.5 39.5 40.5 41.5 42.5 43.5 44.5 45.5 46.5 47.5 48.5 49.5 50.5 51.5 52.5 53.5 54.5 55.5 56.5 57.5 58.5 59.5 60.5 61.5 62.5 63.5 64.5 65.5 66.5 67.5 68.5 69.5 70.5 71.5 72.5 73.5 74.5 75.5 76.5 77.5 78.5 79.5 80.5 81.5 82.5 83.5 84.5 85.5 86.5 87.5 88.5 89.5 90.5 91.5 92.5 93.5 94.5 95.5 96.5 97.5 98.5 99.5 
Y_COORDINATES 40 float
0.5 1.5 2.5 3.5 4.5 5.5 6.5 7.5 8.5 9.5 10.5 11.5 12.5 13.5 14.5 15.5 16.5 17.5 18.5 19.5 20.5 21.5 22.5 23.5 24.5 25.5 26.5 27.5 28.5 29.5 30.5 31.5 32.5 33.5 34.5 35.5 36.5 37.5 38.5 39.5 
Z_COORDINATES 1 float
0
POINT_DATA 4000
SCALARS density_difference float 1
LOOKUP_TABLE default
0.000634009
0.000638507
0.00064168
0.000643262
0.000640396
0.000630567
0.000614045
0.000596154
0.000569905
0.000525006
0.000478202
0.000427918
0.000351342
0.000267853
0.000185555
8.1978e-05
-2.63646e-05
-0.00013088
-0.000246015
-0.000353055
-0.000447765
-0.000548365
-0.000629055
-0.000688962
-0.000751571
-0.000795063
-0.00081652
-0.000839752
-0.000850097
-0.000843206
-0.000836787
-0.000826443
-0.000805541
-0.000780812
-0.000757364
-0.000732207
-0.000701627
-0.00067029
-0.000642048
-0.000612543
-0.000580023
-0.000549189
-0.000520573
-0.000490679
-0.000460052
-0.000431448
-0.000403822
-0.0003755
-0.000347601
-0.000321202
-0.000295126
-0.000268936
-0.000243494
-0.000218972
-0.000194562
-0.000170404
-0.000146919
-0.000123958
-0.000101114
-7.86675e-05
-5.67012e-05
-3.50642e-05
-1.36004e-05
7.4678e-06
2.8223e-05
4.87118e-05
6.9005e-05
8.8972e-05
0.00010872
0.000128217
0.000147551
0.000166632
0.000185522
0.000204191
0.000222778
0.000241132
0.000259292
0.000277329
0.000295355
0.000313074
0.000330637
0.000348262
0.00036582
0.000382903
0.000400041
0.000417415
0.000434353
0.000450718
0.000467632
0.000484583
0.000500349
0.000515913
0.000532543
0.000548042
0.000561678
0.000576226
0.000591238
0.000602921
0.000613174
0.0006248
0.000625613
0.000629781
0.000632579
0.00063254
0.000627282
0.000613278
0.000598133
0.000581823
0.000545166
0.000497964
0.000461969
0.000403456
0.000317199
0.00024427
0.000166581
5.68562e-05
-5.2072e-05
-0.000145831
-0.000252313
-0.000364944
-0.000453845
-0.000540372
-0.000624056
-0.000678938
-0.00073137
-0.000782918
-0.000799256
-0.000810095
-0.00083135
-0.000829281
-0.000811505
-0.000802206
-0.000790985
-0.000766697
-0.000737871
-0.000715348
-0.000691525
-0.000659978
-0.000628635
-0.000602371
-0.000573838
-0.000541979
-0.000512276
-0.000485171
-0.000456195
-0.000426682
-0.000399103
-0.00037261
-0.000345098
-0.000318211
-0.000292549
-0.000267353
-0.000241793
-0.000217147
-0.000193128
-0.000169419
-0.000145708
-0.000122839
-0.000100227
-7.79502e-05
-5.58109e-05
-3.43459e-05
-1.29569e-05
8.03852e-06
2.88887e-05
4.9212e-05
6.95315e-05
8.9422e-05
0.000109216
0.000128593
0.000147988
0.000166946
0.00018588
0.000204482
0.000223092
0.000241276
0.000259539
0.00027752
0.000295452
0.000313016
0.000330794
0.000348243
0.000365545
0.000382644
0.000400053
0.00041689
0.00043353
0.000450277
0.000467183
0.000483023
0.000498867
0.000515116
0.000530773
0.000544806
0.000559426
0.000574126
0.00058671
0.000597527
0.000609185
0.000619148
0.000619884
0.000626708
0.0006279
0.000622853
0.000617043
0.000608323
0.000591185
0.000561643
0.000529725
0.000497053
0.000440842
0.000369504
0.000311738
0.000231197
0.000124598
3.53222e-05
-6.22139e-05
-0.000179634
-0.000278661
-0.000377063
-0.000479254
-0.000552812
-0.000625455
-0.000697566
-0.00073372
-0.000765292
-0.000801696
-0.000811035
-0.000809215
-0.000813125
-0.000806932
-0.000789326
-0.000769545
-0.000752821
-0.000730665
-0.000701733
-0.000674792
-0.000650955
-0.000621997
-0.000591134
-0.000563447
-0.000536613
-0.000506657
-0.000477565
-0.000450465
-0.000423308
-0.000394891
-0.000368044
-0.000342025
-0.000315955
-0.000289664
-0.00026478
-0.000240059
-0.000215571
-0.00019125
-0.000167973
-0.000144602
-0.00012171
-9.90141e-05
-7.70767e-05
-5.50029e-05
-3.35245e-05
-1.21409e-05
8.63571e-06
2.95292e-05
4.982e-05
7.01172e-05
8.98701e-05
0.000109739
0.000129048
0.00014842
0.000167288
0.000186308
0.000204805
0.000223384
0.000241531
0.000259875
0.000277677
0.000295592
0.000313204
0.000330985
0.000348138
0.000365537
0.00038276
0.000399923
0.000416391
0.000433426
0.000450183
0.000466352
0.00048205
0.000498717
0.000514307
0.000528691
0.000543457
0.000558967
0.000571503
0.000582949
0.000595863
0.000607258
0.000613455
0.000620445
0.000623454
0.000624035
0.000622037
0.000615014
0.000604022
0.000586259
0.000555876
0.000526803
0.000489835
0.000424488
0.000360292
0.000301491
0.000204818
9.93483e-05
9.55889e-06
-9.41105e-05
-0.000217351
-0.000324748
-0.000414698
-0.00051563
-0.000600042
-0.000658858
-0.00072366
-0.000765233
-0.000780088
-0.000809276
-0.000825832
-0.000811294
-0.000805202
-0.00080284
-0.000786095
-0.000760248
-0.000739076
-0.000720191
-0.00069431
-0.000663576
-0.000638127
-0.000613131
-0.000583886
-0.000553927
-0.000527678
-0.000500508
-0.000471793
-0.000443749
-0.00041782
-0.000390883
-0.000363933
-0.000337757
-0.000312782
-0.000287079
-0.000262048
-0.000237521
-0.000213754
-0.000189557
-0.000166248
-0.000143134
-0.000120623
-9.78861e-05
-7.60227e-05
-5.41298e-05
-3.28227e-05
-1.13831e-05
9.28006e-06
3.00942e-05
5.02996e-05
7.06279e-05
9.02842e-05
0.000110141
0.000129373
0.00014877
0.000167583
0.000186601
0.000205001
0.000223644
0.000241759
0.000260044
0.000277766
0.000295831
0.000313346
0.000330976
0.000348182
0.000365788
0.000382686
0.0003997
0.000416518
0.000433588
0.000449647
0.000466027
0.000482374
0.000498378
0.000513102
0.000528639
0.000543756
0.00055737
0.000569893
0.000583573
0.000595087
0.000603939
0.000612425
0.000622406
0.00062314
0.000626244
0.000627135
0.000618256
0.000602414
0.000586568
0.000565517
0.000527761
0.000472229
0.000425662
0.000369623
0.000265722
0.000171204
9.72018e-05
-3.43028e-05
-0.000164317
-0.000259111
-0.000379988
-0.000495674
-0.000576304
-0.000671202
-0.000733682
-0.000763286
-0.000815155
-0.000844226
-0.000830688
-0.000835023
-0.000840675
-0.000823345
-0.000797221
-0.000780259
-0.000765047
-0.000736905
-0.000705275
-0.000684059
-0.000660082
-0.000628596
-0.000599452
-0.00057569
-0.000547955
-0.000518229
-0.000491178
-0.000466036
-0.000438175
-0.000410916
-0.000385216
-0.000360074
-0.000333559
-0.00030841
-0.000283818
-0.000259527
-0.000234708
-0.00021122
-0.000187707
-0.000164633
-0.000141392
-0.000119232
-9.68145e-05
-7.5011e-05
-5.31078e-05
-3.20748e-05
-1.07345e-05
9.89873e-06
3.06795e-05
5.07093e-05
7.10437e-05
9.06573e-05
0.000110479
0.000129613
0.000149061
0.000167807
0.000186802
0.00020517
0.000223875
0.000241884
0.000260182
0.000277942
0.000296029
0.00031339
0.000331134
0.000348431
0.000365929
0.000382678
0.000400014
0.000416864
0.000433593
0.000449713
0.000466698
0.000482725
0.000498192
0.00051361
0.00052986
0.000543853
0.000557219
0.000571547
0.000585301
0.000594714
0.000604695
0.000615865
0.000624773
0.000632587
0.000635162
0.000629646
0.000625838
0.00061616
0.000594427
0.000569557
0.000533887
0.000480041
0.000428708
0.000353756
0.000249805
0.000160211
5.12053e-05
-9.0233e-05
-0.000219042
-0.000339379
-0.00046482
-0.000596166
-0.00068278
-0.000759021
-0.000833053
-0.000863315
-0.000880204
-0.000908621
-0.000894806
-0.000873498
-0.000867812
-0.00084676
-0.000815991
-0.000787368
-0.000761859
-0.000737197
-0.000705404
-0.000674884
-0.000648949
-0.000622326
-0.000591862
-0.000564089
-0.000537961
-0.000511127
-0.000482858
-0.000456886
-0.000431089
-0.000405091
-0.000378694
-0.000354058
-0.000329008
-0.000304242
-0.000279464
-0.000255965
-0.000231903
-0.000208493
-0.000185097
-0.000162647
-0.000139696
-0.000117583
-9.53643e-05
-7.39303e-05
-5.21029e-05
-3.11485e-05
-9.96126e-06
1.04837e-05
3.12571e-05
5.12027e-05
7.14598e-05
9.09719e-05
0.000110808
0.000129884
0.000149302
0.000167976
0.00018702
0.00020536
0.000224033
0.000241999
0.000260416
0.000278129
0.000296149
0.000313575
0.000331504
0.000348628
0.000366088
0.000383146
0.000400595
0.000417044
0.000434046
0.000450779
0.000467436
0.00048299
0.00049958
0.000515556
0.000530561
0.000544883
0.000560671
0.00057427
0.000586032
0.000598466
0.000611307
0.000618587
0.000635065
0.000643973
0.000644824
0.000641538
0.000641197
0.000632401
0.00060987
0.000579074
0.000546443
0.000504569
0.000426285
0.000326668
0.000262288
0.000148256
-3.60333e-05
-0.00014403
-0.000264464
-0.000459756
-0.000592243
-0.000699735
-0.00082558
-0.000884787
-0.000941624
-0.00100714
-0.000983495
-0.000959081
-0.000979749
-0.000953776
-0.000900065
-0.000864866
-0.000845048
-0.000812752
-0.000763857
-0.000731932
-0.000709137
-0.000674595
-0.000637572
-0.000612062
-0.000586104
-0.000555028
-0.000525777
-0.000501707
-0.000475182
-0.000447596
-0.000421832
-0.000398063
-0.000372249
-0.000347124
-0.000322955
-0.00029956
-0.000274928
-0.000251509
-0.000228295
-0.000205583
-0.000182221
-0.000160056
-0.000137671
-0.000115862
-9.36834e-05
-7.2538e-05
-5.10072e-05
-3.01746e-05
-9.04692e-06
1.11879e-05
3.18439e-05
5.17314e-05
7.19301e-05
9.13223e-05
0.000111139
0.000130169
0.00014955
0.000168185
0.000187253
0.000205536
0.000224219
0.000242221
0.000260654
0.000278304
0.000296432
0.000313941
0.000331827
0.000348946
0.00036668
0.000383786
0.000401115
0.000417789
0.000435251
0.000451842
0.000468442
0.000484726
0.000501808
0.000517317
0.000532794
0.000548583
0.000564443
0.000577439
0.00059109
0.000605484
0.000617311
0.000624908
0.000650221
0.000652764
0.00065972
0.000667877
0.000659688
0.000644268
0.000637553
0.000610879
0.000561253
0.000513654
0.000442654
0.000344655
0.000242019
9.35199e-05
-5.32907e-05
-0.000201529
-0.000392268
-0.000559443
-0.000719122
-0.000844995
-0.000982448
-0.00106693
-0.00108118
-0.00110491
-0.00112434
-0.00107915
-0.00104548
-0.0010078
-0.000959462
-0.000918017
-0.000864149
-0.000822038
-0.000786076
-0.000742086
-0.000701201
-0.000670582
-0.000638042
-0.000603659
-0.000573025
-0.000546587
-0.000517863
-0.000489771
-0.000463833
-0.000439306
-0.000413035
-0.00038826
-0.000364264
-0.000340652
-0.000316064
-0.000293029
-0.000269872
-0.000247034
-0.000223747
-0.000201721
-0.000179197
-0.00015723
-0.000134996
-0.000113743
-9.19456e-05
-7.08949e-05
-4.95648e-05
-2.90672e-05
-8.08736e-06
1.20738e-05
3.25767e-05
5.22934e-05
7.24438e-05
9.17842e-05
0.000111512
0.000130462
0.00014985
0.000168464
0.00018748
0.000205741
0.000224494
0.000242485
0.000260878
0.000278597
0.000296865
0.000314315
0.000332207
0.000349586
0.000367463
0.000384395
0.000401974
0.000419186
0.000436572
0.000452974
0.000470493
0.000487443
0.000503895
0.000519817
0.000537395
0.000553206
0.000567865
0.000583465
0.000600237
0.000612296
0.000623951
0.000638783
0.00066354
0.000672469
0.000683727
0.000688135
0.000683553
0.00067757
0.000667237
0.000639479
0.000595588
0.000532578
0.000465047
0.00038132
0.000208161
4.18521e-05
-3.75274e-05
-0.000282857
-0.000534198
-0.00063987
-0.000851524
-0.00104011
-0.00112138
-0.00123915
-0.0012778
-0.00120334
-0.00123147
-0.00122699
-0.0011179
-0.00105414
-0.00101718
-0.000970821
-0.000896327
-0.000833359
-0.000798825
-0.000756209
-0.00070281
-0.000664713
-0.000634294
-0.000598668
-0.00056293
-0.000535342
-0.000508244
-0.000479438
-0.000452085
-0.000428504
-0.000403655
-0.000378734
-0.000354837
-0.0003326
-0.000309003
-0.000286081
-0.000263542
-0.000241805
-0.000219071
-0.000197282
-0.000175401
-0.000154105
-0.000132157
-0.000111169
-8.98394e-05
-6.91294e-05
-4.79624e-05
-2.7687e-05
-6.97887e-06
1.30285e-05
3.34237e-05
5.2996e-05
7.30214e-05
9.22922e-05
0.000111951
0.000130842
0.000150191
0.000168765
0.000187766
0.000206049
0.00022479
0.000242763
0.000261235
0.000279032
0.000297271
0.000314783
0.000332902
0.000350342
0.000368186
0.00038542
0.000403367
0.000420515
0.000438054
0.000455217
0.000473073
0.000489841
0.000507133
0.000524353
0.000541882
0.000557873
0.000574828
0.00059181
0.000607897
0.000621957
0.000637843
0.000652629
0.000681105
0.000700717
0.000708636
0.000707642
0.000720848
0.00072496
0.000694272
0.000668932
0.000654745
0.000581834
0.000478279
0.000388733
0.000246328
6.46038e-05
-0.000152297
-0.00036858
-0.000494536
-0.000752529
-0.00101441
-0.00121448
-0.00127841
-0.00134968
-0.00143662
-0.00142316
-0.00130992
-0.00125715
-0.00120043
-0.00115958
-0.00107016
-0.000973391
-0.000931068
-0.000876417
-0.000802047
-0.000752089
-0.000714978
-0.000668838
-0.00062315
-0.000590387
-0.00055912
-0.00052501
-0.00049431
-0.000469325
-0.000442645
-0.000416013
-0.00039194
-0.000369717
-0.000345624
-0.000322724
-0.000300833
-0.000279332
-0.000256668
-0.000235326
-0.000213939
-0.000192768
-0.000170988
-0.000150296
-0.000129133
-0.000108401
-8.72877e-05
-6.70438e-05
-4.62633e-05
-2.61105e-05
-5.61397e-06
1.41206e-05
3.43442e-05
5.38496e-05
7.37227e-05
9.28638e-05
0.000112461
0.000131325
0.000150581
0.000169119
0.000188132
0.000206416
0.000225109
0.000243137
0.000261689
0.000279488
0.000297742
0.000315452
0.000333692
0.000351107
0.000369145
0.000386793
0.000404799
0.000421964
0.000440159
0.000457926
0.000475609
0.000492812
0.000511637
0.00052931
0.000546404
0.000564278
0.000583863
0.000600204
0.000616436
0.000635809
0.000654247
0.000665759
0.000706147
0.000721608
0.000735379
0.00074953
0.000758597
0.000754944
0.000748611
0.00073402
0.00069099
0.000630851
0.000546972
0.000407658
0.000289193
0.000124335
-0.000251246
-0.000411418
-0.00046055
-0.000818358
-0.00101852
-0.00126544
-0.00153748
-0.00157266
-0.00147123
-0.00152385
-0.00140238
-0.00131207
-0.00129556
-0.00120486
-0.00110676
-0.0010114
-0.00094732
-0.00089018
-0.000818834
-0.000760108
-0.000714337
-0.000667514
-0.000621365
-0.000583588
-0.000549478
-0.000516005
-0.000484268
-0.000457088
-0.000431018
-0.000405446
-0.000380691
-0.000358419
-0.00033594
-0.000313763
-0.000291832
-0.000271204
-0.000249851
-0.000228919
-0.000207912
-0.000187642
-0.000166636
-0.000146218
-0.000125531
-0.000105408
-8.46994e-05
-6.4669e-05
-4.4271e-05
-2.44455e-05
-4.16415e-06
1.54161e-05
3.54e-05
5.4755e-05
7.45057e-05
9.35662e-05
0.00011304
0.000131841
0.000151042
0.000169579
0.000188532
0.000206804
0.00022553
0.000243621
0.000262129
0.000279999
0.000298417
0.000316195
0.00033441
0.000352113
0.000370446
0.000388071
0.000406243
0.000424115
0.000442571
0.000460233
0.000478764
0.000497159
0.000515851
0.000533844
0.000553242
0.000572293
0.000591165
0.000609841
0.000630256
0.000649305
0.000667674
0.000686507
0.000730901
0.000744901
0.000769159
0.000794176
0.000795725
0.000795995
0.000819435
0.00080216
0.000731385
0.000698954
0.000651292
0.000473679
0.000297342
0.000169157
-6.51436e-05
-0.000397441
-0.000761434
-0.000717442
-0.000841051
-0.00116172
-0.00119446
-0.00148332
-0.0015767
-0.00137917
-0.00146415
-0.00147592
-0.00138486
-0.00117969
-0.0011119
-0.00107946
-0.000963941
-0.000875843
-0.000834737
-0.000778065
-0.000708859
-0.000661063
-0.000623772
-0.000579261
-0.000537113
-0.000506729
-0.000477178
-0.00044535
-0.000417718
-0.000395166
-0.000370891
-0.000346736
-0.000325168
-0.000305054
-0.000283266
-0.000262414
-0.000242422
-0.000222631
-0.000201807
-0.000181951
-0.000161989
-0.000142129
-0.000121695
-0.000102053
-8.19736e-05
-6.2207e-05
-4.20636e-05
-2.2584e-05
-2.63465e-06
1.68185e-05
3.65991e-05
5.57624e-05
7.53544e-05
9.43591e-05
0.000113696
0.000132425
0.000151568
0.000170094
0.000188974
0.000207269
0.000226009
0.000244118
0.000262626
0.000280628
0.000299111
0.000316936
0.000335287
0.000353264
0.00037168
0.000389442
0.000408038
0.000426334
0.000444861
0.000462977
0.000482452
0.000501334
0.000520158
0.000539471
0.000560572
0.000579912
0.000599423
0.000621374
0.00064421
0.000662817
0.000683949
0.000709839
0.000753175
0.000781325
0.0008048
0.000823364
0.000848083
0.000867621
0.00086375
0.000853925
0.000853917
0.000796165
0.000675243
0.000591706
0.000447934
0.000202478
0.000167362
-0.00027432
-0.000991267
-0.00043556
-0.000392496
-0.000918802
-0.000465499
-0.000877508
-0.00108025
-0.000900187
-0.00143934
-0.0015547
-0.00132374
-0.00124541
-0.00114341
-0.00105345
-0.000974349
-0.00090437
-0.0008365
-0.000769859
-0.000714095
-0.000664559
-0.000615536
-0.00057199
-0.000533438
-0.000497547
-0.000464928
-0.000436248
-0.000408515
-0.000382867
-0.000359572
-0.000337613
-0.000315385
-0.00029473
-0.000274735
-0.000254934
-0.000234746
-0.00021554
-0.000196054
-0.000176646
-0.000156903
-0.000137762
-0.000118088
-9.86747e-05
-7.89471e-05
-5.96812e-05
-3.99267e-05
-2.05981e-05
-9.50438e-07
1.82327e-05
3.78124e-05
5.68815e-05
7.62763e-05
9.516e-05
0.000114395
0.000133095
0.000152126
0.000170615
0.000189477
0.000207809
0.000226479
0.00024463
0.000263231
0.000281296
0.000299735
0.00031777
0.00033634
0.000354324
0.00037283
0.000391147
0.000409971
0.000428183
0.000447326
0.000466453
0.000485831
0.000504886
0.000525593
0.000546005
0.000566356
0.000587486
0.000610778
0.000632583
0.000654816
0.000679686
0.000705466
0.000727938
0.000778546
0.000813838
0.000840366
0.000862051
0.000899961
0.000930222
0.000925372
0.00093368
0.000960585
0.000890235
0.000771156
0.000738103
0.000622666
0.000340137
0.000115687
-0.000204703
-0.000522888
-0.000348526
-0.000237618
-0.000384375
-0.000416862
-0.000532664
-0.000421545
-0.000490159
-0.000969061
-0.0012334
-0.00124954
-0.0013123
-0.00117259
-0.00102149
-0.000981848
-0.000921371
-0.000828744
-0.000765785
-0.000721688
-0.000664112
-0.000606302
-0.000566211
-0.000530349
-0.000489593
-0.000453725
-0.000426978
-0.00040027
-0.000372508
-0.00034862
-0.000328273
-0.000306716
-0.000285469
-0.000266064
-0.000247514
-0.00022783
-0.000208754
-0.000190107
-0.000171505
-0.00015216
-0.000133371
-0.000114375
-9.54175e-05
-7.60034e-05
-5.7065e-05
-3.77491e-05
-1.86567e-05
7.5379e-07
1.9717e-05
3.90474e-05
5.80043e-05
7.72334e-05
9.60077e-05
0.000115118
0.000133776
0.000152708
0.000171183
0.000189998
0.000208332
0.000226977
0.000245202
0.000263805
0.000281924
0.000300448
0.000318642
0.000337249
0.000355401
0.000374171
0.000392715
0.000411656
0.000430311
0.00044996
0.000469372
0.000489142
0.000509172
0.000530658
0.000551528
0.000572968
0.000595928
0.000620422
0.000643219
0.000667836
0.000696107
0.000724074
0.000748327
0.000806414
0.000835362
0.000874964
0.000916434
0.000943874
0.00097354
0.00101893
0.00103366
0.00100346
0.00101445
0.00103005
0.000837098
0.000623812
0.000420929
-2.29729e-06
-0.000211639
-0.00031126
-0.000454748
-0.000488381
-0.000313184
-0.000418892
-0.000358447
-0.000314029
-0.000354049
-0.00051382
-0.00076225
-0.00110148
-0.00118719
-0.00111874
-0.00107355
-0.000988092
-0.000892495
-0.000831672
-0.000778725
-0.000711673
-0.000654816
-0.000610767
-0.000563247
-0.000517449
-0.00048275
-0.000450507
-0.000417002
-0.000388569
-0.000365278
-0.000341203
-0.000317867
-0.000297632
-0.00027861
-0.000258547
-0.000239515
-0.000221429
-0.000203235
-0.000184377
-0.000166226
-0.000147949
-0.000129488
-0.000110639
-9.22175e-05
-7.33805e-05
-5.45955e-05
-3.55366e-05
-1.68058e-05
2.31505e-06
2.11839e-05
4.02937e-05
5.90618e-05
7.81447e-05
9.6872e-05
0.000115836
0.000134416
0.000153288
0.00017177
0.000190493
0.000208828
0.000227502
0.000245771
0.000264313
0.000282548
0.000301208
0.000319427
0.000338045
0.000356555
0.000375512
0.000394003
0.00041327
0.000432657
0.000452309
0.000471737
0.000492716
0.000513694
0.000534625
0.000556464
0.000580709
0.000603862
0.000627413
0.000654435
0.000683304
0.000709032
0.000738391
0.000773814
0.00082887
0.000863881
0.000907304
0.000956293
0.000994364
0.0010284
0.00108481
0.00112639
0.00111742
0.00113035
0.00115417
0.00108102
0.00081686
0.000184682
-0.000298077
-0.000318543
-0.000394194
-0.000433699
-0.000390113
-0.000346033
-0.000412622
-0.0003371
-0.000308067
-0.00032538
-0.000345828
-0.000374571
-0.000672942
-0.00104913
-0.00115317
-0.00106686
-0.000943314
-0.00088695
-0.000846142
-0.000774406
-0.00070198
-0.00065328
-0.000609105
-0.000557988
-0.000511666
-0.000476346
-0.000443615
-0.000410259
-0.000381013
-0.000356957
-0.000333643
-0.000310718
-0.000290029
-0.000271239
-0.000252138
-0.000233386
-0.000215394
-0.000197813
-0.000179662
-0.000161747
-0.000143828
-0.000125907
-0.0001075
-8.92964e-05
-7.08255e-05
-5.23859e-05
-3.35984e-05
-1.50421e-05
3.80932e-06
2.24938e-05
4.14318e-05
6.0089e-05
7.90077e-05
9.76504e-05
0.000116508
0.000135049
0.000153834
0.000172288
0.00019097
0.000209333
0.000227963
0.000246255
0.000264845
0.000283159
0.000301796
0.000320145
0.000338932
0.000357524
0.000376529
0.000395392
0.000414923
0.000434354
0.000454364
0.000474554
0.000495725
0.000516892
0.000538996
0.000561895
0.00058612
0.000610426
0.000636436
0.000664337
0.000693726
0.000723025
0.000755743
0.000792331
0.00084637
0.000896493
0.000937221
0.000978102
0.00104108
0.00110039
0.00113545
0.00118333
0.00125554
0.00126174
0.0012184
0.00133665
0.000995695
6.43996e-06
-0.000441664
-0.000401499
-0.000359186
-0.000331964
-0.000371315
-0.000422931
-0.000326996
-0.000319058
-0.000372278
-0.000327427
-0.000226327
-0.000221885
-0.000424878
-0.000881251
-0.00108433
-0.00100229
-0.000957643
-0.000906832
-0.000820565
-0.000754897
-0.00071459
-0.0006577
-0.000593498
-0.000550848
-0.000515292
-0.000471164
-0.00043234
-0.000405376
-0.000378153
-0.000349011
-0.000325416
-0.000305898
-0.000284798
-0.000264197
-0.000246312
-0.00022898
-0.000210501
-0.000192766
-0.000175704
-0.000158286
-0.000140253
-0.000122679
-0.000104929
-8.69007e-05
-6.85463e-05
-5.04501e-05
-3.20018e-05
-1.35302e-05
5.15028e-06
2.36194e-05
4.23893e-05
6.0997e-05
7.97769e-05
9.83138e-05
0.000117092
0.000135618
0.000154311
0.000172731
0.000191399
0.000209782
0.000228349
0.000246681
0.000265331
0.000283671
0.00030228
0.000320804
0.000339715
0.000358289
0.000377406
0.000396687
0.000416287
0.000435675
0.000456261
0.000477109
0.000498025
0.000519521
0.000543208
0.000566525
0.000590014
0.000616366
0.000645259
0.000671942
0.000701207
0.000737099
0.000772631
0.000804358
0.000864052
0.00091036
0.000961368
0.00101336
0.00107226
0.00113971
0.00119715
0.00124913
0.00133318
0.00138581
0.00138104
0.00144024
0.000574757
-0.000291333
-0.000312091
-0.000367833
-0.000373559
-0.000364234
-0.000369954
-0.000366687
-0.000326856
-0.000342739
-0.00031264
-0.000283879
-0.000251752
-0.000252094
-0.000261255
-0.000622213
-0.00101051
-0.000986652
-0.000960354
-0.000884465
-0.000813578
-0.000762851
-0.000707044
-0.000647705
-0.000596179
-0.000549999
-0.00050627
-0.000466928
-0.000431633
-0.00039963
-0.000371144
-0.000345556
-0.000321661
-0.000299818
-0.000279742
-0.000260648
-0.000242027
-0.000224298
-0.000206913
-0.000189631
-0.000172275
-0.000155154
-0.000137787
-0.000120332
-0.000102628
-8.4954e-05
-6.69338e-05
-4.88966e-05
-3.06051e-05
-1.23664e-05
6.15133e-06
2.45688e-05
4.31975e-05
6.16856e-05
8.03793e-05
9.88857e-05
0.000117571
0.000136044
0.000154698
0.000173125
0.000191732
0.000210102
0.000228694
0.000247062
0.000265652
0.000284054
0.000302775
0.000321308
0.000340178
0.000359001
0.00037828
0.000397451
0.000417218
0.00043718
0.000457739
0.000478425
0.000500216
0.000522465
0.000545516
0.000569358
0.000595042
0.000621346
0.00064913
0.000679036
0.000711344
0.00074471
0.00078142
0.000821405
0.000876656
0.000918066
0.000977721
0.00104404
0.001095
0.00115389
0.00124435
0.0013299
0.00138172
0.00143869
0.00156015
0.00131284
0.000216829
-0.000383015
-0.000274993
-0.000340428
-0.000389958
-0.000379338
-0.00033537
-0.000321094
-0.000364653
-0.000349027
-0.000271577
-0.000269396
-0.000282239
-0.000226383
-0.000183141
-0.000442393
-0.000892687
-0.00100699
-0.000920156
-0.000856948
-0.000828601
-0.000770528
-0.000691061
-0.000639763
-0.000602792
-0.000549462
-0.000497421
-0.000463765
-0.000432482
-0.000395819
-0.00036552
-0.000343137
-0.000319654
-0.000295684
-0.000275945
-0.00025829
-0.000239346
-0.000221033
-0.000204321
-0.00018757
-0.000170008
-0.000152938
-0.000136057
-0.000118774
-0.000101056
-8.3573e-05
-6.58218e-05
-4.78482e-05
-2.96307e-05
-1.15455e-05
6.83779e-06
2.52211e-05
4.37668e-05
6.21672e-05
8.07952e-05
9.92844e-05
0.000117907
0.000136341
0.00015497
0.000173398
0.000191963
0.000210333
0.000228936
0.000247317
0.00026588
0.000284335
0.000303107
0.000321642
0.000340524
0.000359505
0.000378842
0.000397987
0.000417921
0.000438182
0.000458695
0.000479422
0.000501784
0.000524354
0.000547102
0.00057152
0.000598452
0.000624553
0.000651962
0.000684204
0.000718187
0.000749675
0.000787611
0.000833981
0.000880437
0.000934711
0.000985364
0.00104091
0.00111368
0.00118793
0.00125537
0.00133396
0.00142028
0.00153883
0.00167409
0.00119124
0.000254857
-0.000353547
-0.000395898
-0.000351954
-0.000328432
-0.000349619
-0.000366151
-0.000356346
-0.000324931
-0.000299908
-0.000315873
-0.000282571
-0.000244009
-0.000211997
-0.000167432
-0.000400089
-0.000770756
-0.000961354
-0.000927726
-0.000882873
-0.000810653
-0.000748626
-0.000704904
-0.000649164
-0.000588405
-0.000543839
-0.000505767
-0.000462714
-0.000424408
-0.000395563
-0.000367776
-0.000339588
-0.000315949
-0.000295791
-0.000275214
-0.000255386
-0.000237674
-0.000220575
-0.000202905
-0.000185781
-0.000169121
-0.000152224
-0.000134895
-0.000117786
-0.000100487
-8.29315e-05
-6.50822e-05
-4.73132e-05
-2.92414e-05
-1.1093e-05
7.25727e-06
2.55198e-05
4.40245e-05
6.24507e-05
8.1028e-05
9.94594e-05
0.000118074
0.000136525
0.00015511
0.000173509
0.000192094
0.000210485
0.000229031
0.000247415
0.000266054
0.000284498
0.000303183
0.000321832
0.000340833
0.000359665
0.000378979
0.000398485
0.000418392
0.000438292
0.000459219
0.000480526
0.000502222
0.000524592
0.00054884
0.000573265
0.000598439
0.000626097
0.000656165
0.000685621
0.000718042
0.000755892
0.000794688
0.000832963
0.000880437
0.000934711
0.000985364
0.00104091
0.00111368
0.00118793
0.00125537
0.00133396
0.00142028
0.00153883
0.00167409
0.00119124
0.000254857
-0.000353547
-0.000395898
-0.000351954
-0.000328432
-0.000349619
-0.000366151
-0.000356346
-0.000324931
-0.000299908
-0.000315873
-0.000282571
-0.000244009
-0.000211997
-0.000167432
-0.000400089
-0.000770756
-0.000961354
-0.000927726
-0.000882873
-0.000810653
-0.000748626
-0.000704904
-0.000649164
-0.000588405
-0.000543839
-0.000505767
-0.000462714
-0.000424408
-0.000395563
-0.000367776
-0.000339588
-0.000315949
-0.000295791
-0.000275214
-0.000255386
-0.000237674
-0.000220575
-0.000202905
-0.000185781
-0.000169121
-0.000152224
-0.000134895
-0.000117786
-0.000100487
-8.29315e-05
-6.50822e-05
-4.73132e-05
-2.92414e-05
-1.1093e-05
7.25727e-06
2.55198e-05
4.40245e-05
6.24507e-05
8.1028e-05
9.94594e-05
0.000118074
0.000136525
0.00015511
0.000173509
0.000192094
0.000210485
0.000229031
0.000247415
0.000266054
0.000284498
0.000303183
0.000321832
0.000340833
0.000359665
0.000378979
0.000398485
0.000418392
0.000438292
0.000459219
0.000480526
0.000502222
0.000524592
0.00054884
0.000573265
0.000598439
0.000626097
0.000656165
0.000685621
0.000718042
0.000755892
0.000794688
0.000832963
0.000876656
0.000918066
0.000977721
0.00104404
0.001095
0.00115389
0.00124435
0.0013299
0.00138172
0.00143869
0.00156015
0.00131284
0.000216829
-0.000383015
-0.000274993
-0.000340428
-0.000389958
-0.000379338
-0.00033537
-0.000321094
-0.000364653
-0.000349027
-0.000271577
-0.000269396
-0.000282239
-0.000226383
-0.000183141
-0.000442393
-0.000892687
-0.00100699
-0.000920156
-0.000856948
-0.000828601
-0.000770528
-0.000691061
-0.000639763
-0.000602792
-0.000549462
-0.000497421
-0.000463765
-0.000432482
-0.000395819
-0.00036552
-0.000343137
-0.000319654
-0.000295684
-0.000275945
-0.00025829
-0.000239346
-0.000221033
-0.000204321
-0.00018757
-0.000170008
-0.000152938
-0.000136057
-0.000118774
-0.000101056
-8.3573e-05
-6.58218e-05
-4.78482e-05
-2.96307e-05
-1.15455e-05
6.83779e-06
2.52211e-05
4.37668e-05
6.21672e-05
8.07952e-05
9.92844e-05
0.000117907
0.000136341
0.00015497
0.000173398
0.000191963
0.000210333
0.000228936
0.000247317
0.00026588
0.000284335
0.000303107
0.000321642
0.000340524
0.000359505
0.000378842