# vtk DataFile Version 3.0
fluid_state
ASCII
DATASET RECTILINEAR_GRID
DIMENSIONS 100 40 1
X_COORDINATES 100 float
0.5 1.5 2.5 3.5 4.5 5.5 6.5 7.5 8.5 9.5 10.5 11.5 12.5 13.5 14.5 15.5 16.5 17.5 18.5 19.5 20.5 21.5 22.5 23.5 24.5 25.5 26.5 27.5 28.5 29.5 30.5 31.5 32.5 33.5 34.5 35.5 36.5 37.5 38.5 39.5 40.5 41.5 42.5 43.5 44.5 45.5 46.5 47.5 48.5 49.5 50.5 51.5 52.5 53.5 54.5 55.5 56.5 57.5 58.5 59.5 60.5 61.5 62.5 63.5 64.5 65.5 66.5 67.5 68.5 69.5 70.5 71.5 72.5 73.5 74.5 75.5 76.5 77.5 78.5 79.5 80.5 81.5 82.5 83.5 84.5 85.5 86.5 87.5 88.5 89.5 90.5 91.5 92.5 93.5 94.5 95.5 96.5 97.5 98.5 99.5 
Y_COORDINATES 40 float
0.5 1.5 2.5 3.5 4.5 5.5 6.5 7.5 8.5 9.5 10.5 11.5 12.5 13.5 14.5 15.5 16.5 17.5 18.5 19.5 20.5 21.5 22.5 23.5 24.5 25.5 26.5 27.5 28.5 29.5 30.5 31.5 32.5 33.5 34.5 35.5 36.5 37.5 38.5 39.5 
Z_COORDINATES 1 float
0
POINT_DATA 4000
SCALARS density_difference float 1
LOOKUP_TABLE default
0.000602318
0.000595688
0.000587632
0.00057791
0.000564291
0.000543895
0.000516541
0.000488324
0.000452294
0.000397428
0.000340939
0.000281637
0.000196263
0.000104232
1.39877e-05
-9.69792e-05
-0.000212113
-0.000322653
-0.000443208
-0.000554744
-0.000652761
-0.000756033
-0.000838428
-0.000898649
-0.000960858
-0.00100311
-0.00102205
-0.00104194
-0.00104832
-0.00103657
-0.00102421
-0.00100743
-0.000979759
-0.000947073
-0.00091499
-0.000881253
-0.000841296
-0.000799662
-0.0007611
-0.000721046
-0.000677217
-0.000634754
-0.000594525
-0.0005527
-0.00050978
-0.000468858
-0.000428921
-0.000388149
-0.000347779
-0.000309038
-0.000270735
-0.000232425
-0.000195079
-0.000158925
-0.00012317
-8.79905e-05
-5.38794e-05
-2.0717e-05
1.18699e-05
4.3564e-05
7.42362e-05
0.000104015
0.000133023
0.000161012
0.000188033
0.000214117
0.000239311
0.000263471
0.000286684
0.000308914
0.000330237
0.000350559
0.00036994
0.000388352
0.000405937
0.000422552
0.000438245
0.000453103
0.00046725
0.00048041
0.000492759
0.000504532
0.000515625
0.000525669
0.000535221
0.000544475
0.000552814
0.000560147
0.000567601
0.000574696
0.000580307
0.000585426
0.000591298
0.000595836
0.000598411
0.000601695
0.000605269
0.000605579
0.000604479
0.000604559
0.000594285
0.000587193
0.000578584
0.000567602
0.000551712
0.000526714
0.000500904
0.000474694
0.000427921
0.000370556
0.00032526
0.000257794
0.000162485
8.09825e-05
-4.37188e-06
-0.000121426
-0.000237382
-0.000337082
-0.000448697
-0.000565933
-0.000658221
-0.000747128
-0.000832599
-0.000887902
-0.000939623
-0.000990024
-0.00100404
-0.00101138
-0.00102851
-0.00102177
-0.000998356
-0.00098226
-0.000964092
-0.000932487
-0.000894981
-0.000863348
-0.000830527
-0.000789101
-0.000747075
-0.000710154
-0.000670738
-0.000627314
-0.000585782
-0.000546864
-0.000505833
-0.00046397
-0.000424041
-0.000385235
-0.000345357
-0.000306118
-0.000268273
-0.00023105
-0.00019364
-0.000157382
-0.000122078
-8.74042e-05
-5.31088e-05
-2.00692e-05
1.22358e-05
4.37258e-05
7.45375e-05
0.000104118
0.000133016
0.000160912
0.000188004
0.000213907
0.000239107
0.000263181
0.000286429
0.000308535
0.000329913
0.000350115
0.000369542
0.000387894
0.000405509
0.000421968
0.00043778
0.000452598
0.000466672
0.000479703
0.000492289
0.000503911
0.000514787
0.000524879
0.000534726
0.000543485
0.000551581
0.000559316
0.000566793
0.000572853
0.000578591
0.000584388
0.000589357
0.000592537
0.000596084
0.0005995
0.000600813
0.000600333
0.000600504
0.000599002
0.000588846
0.000584273
0.000574449
0.00055858
0.000541685
0.000522203
0.000494946
0.000455005
0.000412721
0.000370584
0.000304983
0.000224103
0.000157566
6.87686e-05
-4.59217e-05
-0.000142679
-0.000246927
-0.000370539
-0.000474765
-0.000577471
-0.000683411
-0.000759323
-0.000833217
-0.000906127
-0.00094173
-0.000971565
-0.00100569
-0.00101191
-0.00100584
-0.00100455
-0.000992985
-0.000969163
-0.000941814
-0.000917485
-0.000887465
-0.000849374
-0.000812812
-0.000779449
-0.00074026
-0.000698415
-0.000659695
-0.000621662
-0.000579982
-0.000538898
-0.000499811
-0.000460501
-0.000419746
-0.000380553
-0.000342265
-0.000303934
-0.000265475
-0.000228594
-0.000192099
-0.000156049
-0.000120472
-8.6273e-05
-5.23684e-05
-1.93416e-05
1.30153e-05
4.41298e-05
7.48405e-05
0.000104408
0.000133275
0.000160927
0.00018804
0.000213894
0.000239055
0.000262979
0.000286291
0.000308324
0.000329674
0.000349785
0.000369298
0.000387551
0.000405141
0.000421574
0.000437477
0.000452133
0.000466208
0.000479305
0.000491917
0.000503272
0.000514272
0.000524511
0.000534148
0.000542582
0.000551098
0.000558876
0.000565679
0.00057164
0.00057821
0.000583412
0.000587201
0.000591115
0.000595558
0.00059696
0.000597205
0.000598724
0.000598735
0.000593715
0.000589651
0.000581531
0.000571245
0.000558165
0.000540177
0.000518866
0.000490724
0.000449693
0.000410786
0.000364355
0.000289138
0.000215553
0.000148135
4.30019e-05
-7.08531e-05
-0.000168261
-0.000278512
-0.000408117
-0.000521105
-0.000615276
-0.000719749
-0.00080684
-0.000866782
-0.000932044
-0.000973285
-0.000986272
-0.00101289
-0.00102623
-0.00100762
-0.000996329
-0.000987987
-0.000965307
-0.000932401
-0.000902967
-0.000876034
-0.000841687
-0.000801247
-0.000765789
-0.000730827
-0.000690948
-0.000649737
-0.000612174
-0.000573535
-0.000532923
-0.000492781
-0.00045475
-0.000415615
-0.000376339
-0.000337886
-0.000300726
-0.000262924
-0.000225916
-0.000189646
-0.000154378
-0.000118966
-8.47632e-05
-5.11534e-05
-1.85495e-05
1.38175e-05
4.48293e-05
7.53275e-05
0.000104695
0.000133594
0.00016111
0.000188122
0.000213873
0.00023905
0.000262864
0.000286152
0.0003081
0.000329468
0.000349521
0.000369029
0.000387188
0.000404846
0.000421252
0.000437104
0.000451693
0.000465929
0.000478945
0.000491426
0.000502857
0.00051408
0.000524023
0.000533545
0.000542353
0.000550927
0.00055806
0.000565113
0.000571738
0.000577696
0.000582113
0.000587069
0.000591349
0.000594012
0.000595475
0.000597908
0.000598109
0.000595769
0.000593004
0.000592155
0.000581941
0.000573909
0.00056383
0.000544534
0.000518134
0.000491501
0.000460521
0.000413121
0.000347232
0.000291057
0.000226253
0.000113019
9.48176e-06
-7.25075e-05
-0.000211725
-0.000349161
-0.000450249
-0.00057667
-0.000697215
-0.000780997
-0.000878498
-0.000942714
-0.000972106
-0.00102325
-0.00105092
-0.00103461
-0.00103511
-0.00103646
-0.0010146
-0.000982268
-0.000958342
-0.000936696
-0.000900911
-0.000860327
-0.000830445
-0.000797537
-0.000755972
-0.000716346
-0.000682175
-0.000643534
-0.00060232
-0.000563673
-0.000526847
-0.00048699
-0.000447548
-0.000409678
-0.000372335
-0.000333573
-0.000296237
-0.000259604
-0.000223406
-0.000186867
-0.000151908
-0.000117231
-8.3307e-05
-4.95977e-05
-1.73797e-05
1.46302e-05
4.55503e-05
7.60329e-05
0.000105098
0.00013387
0.000161334
0.000188291
0.000213846
0.000239011
0.00026277
0.000286009
0.000307849
0.000329259
0.000349241
0.000368722
0.000386849
0.000404569
0.000420875
0.000436745
0.000451382
0.000465649
0.000478528
0.000491136
0.000502676
0.000513812
0.000523635
0.000533499
0.000542365
0.000550641
0.000557871
0.000565546
0.000571901
0.000577391
0.000582524
0.000588213
0.000591479
0.000593963
0.000597202
0.000599793
0.000598088
0.000596853
0.000596707
0.000595199
0.000591965
0.000583542
0.000567421
0.000553087
0.000532657
0.000500659
0.000466028
0.000420052
0.000356136
0.000295674
0.000211195
9.76304e-05
-8.42596e-07
-0.000118207
-0.000267723
-0.000404517
-0.000531436
-0.00066239
-0.000798885
-0.000889126
-0.000967501
-0.00104317
-0.00107349
-0.001089
-0.00111577
-0.00109909
-0.00107409
-0.00106353
-0.00103729
-0.00100123
-0.00096547
-0.000932407
-0.000900672
-0.00086053
-0.000820623
-0.000785491
-0.000749363
-0.000708473
-0.000669915
-0.000632957
-0.000594906
-0.000554981
-0.000517228
-0.000479554
-0.000441474
-0.00040288
-0.000366064
-0.000328851
-0.000291943
-0.000255137
-0.00021978
-0.000184052
-0.000149206
-0.000114676
-8.14207e-05
-4.804e-05
-1.5902e-05
1.58776e-05
4.63927e-05
7.677e-05
0.000105729
0.000134322
0.000161571
0.0001885
0.000213951
0.000239021
0.000262661
0.000285901
0.000307673
0.000329043
0.000348946
0.000368471
0.000386569
0.000404254
0.000420522
0.000436514
0.000451112
0.00046532
0.00047828
0.000491084
0.000502469
0.000513589
0.000523744
0.000533741
0.000542243
0.000550825
0.000558693
0.000566081
0.000572023
0.000578666
0.00058439
0.00058892
0.000592582
0.000597497
0.000600093
0.000600831
0.000602164
0.000603802
0.000599979
0.000606126
0.000604076
0.000594338
0.000580457
0.000569316
0.000550249
0.000517914
0.000476643
0.000433689
0.000382785
0.000294645
0.000184498
0.000111274
-1.16619e-05
-0.000205683
-0.00032241
-0.000450332
-0.000652936
-0.000791938
-0.000903931
-0.0010341
-0.00109559
-0.00115279
-0.00121901
-0.00119399
-0.00116681
-0.00118432
-0.00115482
-0.00109661
-0.00105489
-0.00102938
-0.000991411
-0.0009344
-0.00089418
-0.000863783
-0.00082044
-0.000773509
-0.000738247
-0.000702363
-0.000660555
-0.000620167
-0.000584945
-0.000546969
-0.000507561
-0.000469855
-0.000434106
-0.000396169
-0.000358854
-0.000322547
-0.000287088
-0.000250465
-0.000215209
-0.000180374
-0.00014628
-0.000111815
-7.88792e-05
-4.61048e-05
-1.43106e-05
1.74e-05
4.75933e-05
7.7642e-05
0.000106448
0.000134958
0.000161971
0.000188758
0.00021413
0.000239124
0.000262627
0.000285834
0.000307547
0.000328869
0.000348726
0.000368269
0.000386307
0.000404002
0.000420307
0.000436318
0.00045086
0.000465185
0.00047824
0.000491014
0.000502415
0.000513825
0.000524051
0.000533958
0.000542718
0.000551779
0.000559547
0.00056693
0.000573638
0.000580801
0.000586141
0.000591213
0.00059636
0.000601417
0.000603557
0.000606226
0.000609523
0.000610341
0.000607016
0.000622108
0.000613976
0.000610333
0.000607885
0.000589328
0.000563878
0.000546943
0.000509999
0.000450864
0.000393507
0.000311933
0.000204487
9.23762e-05
-6.64248e-05
-0.000222824
-0.000380385
-0.000579253
-0.000754362
-0.000921281
-0.00105191
-0.0011932
-0.00128038
-0.00129475
-0.00131798
-0.0013364
-0.00128815
-0.00125102
-0.00120842
-0.00115589
-0.00110929
-0.00104789
-0.000999399
-0.000957004
-0.000904499
-0.000854807
-0.000815757
-0.000773955
-0.000729436
-0.000688527
-0.000651652
-0.000611944
-0.000572506
-0.000535089
-0.000498896
-0.000460701
-0.000423898
-0.000387832
-0.000352109
-0.000315393
-0.000280314
-0.000245222
-0.000210597
-0.000175712
-0.000142344
-0.000108762
-7.60635e-05
-4.34687e-05
-1.22699e-05
1.90247e-05
4.90901e-05
7.89113e-05
0.00010735
0.000135686
0.000162599
0.000189212
0.00021439
0.000239317
0.00026275
0.000285854
0.000307472
0.000328792
0.00034862
0.000368105
0.000386116
0.000403879
0.000420175
0.000436149
0.000450767
0.000465239
0.000478245
0.00049104
0.000502718
0.000514288
0.000524366
0.000534547
0.000543872
0.000552891
0.000560516
0.00056885
0.000576265
0.000582863
0.000588676
0.000595881
0.000601134
0.000605098
0.000609889
0.000615734
0.000616874
0.000617633
0.000621545
0.000636477
0.000634872
0.000635509
0.000629599
0.000615056
0.000598893
0.000578262
0.000541066
0.000487641
0.000413753
0.00033649
0.000243893
5.91366e-05
-0.000118051
-0.000206289
-0.000461682
-0.000723362
-0.000837712
-0.00105565
-0.00125057
-0.00133476
-0.00145463
-0.0014952
-0.00141797
-0.0014442
-0.0014371
-0.00132444
-0.00125541
-0.00121227
-0.00116204
-0.00108128
-0.00100981
-0.000968522
-0.000918866
-0.000856435
-0.000809047
-0.000769621
-0.00072427
-0.000678019
-0.000639801
-0.000601882
-0.000561798
-0.000522868
-0.000487627
-0.000450937
-0.000413999
-0.000378022
-0.000343725
-0.000308048
-0.000273104
-0.000238658
-0.000205185
-0.000170891
-0.000137792
-0.00010489
-7.29063e-05
-4.06305e-05
-9.73081e-06
2.10618e-05
5.07505e-05
8.03809e-05
0.000108568
0.000136605
0.000163337
0.000189821
0.000214831
0.000239615
0.00026296
0.000285981
0.000307527
0.000328797
0.000348575
0.000368038
0.000386067
0.000403817
0.000420095
0.000436151
0.000450852
0.000465303
0.000478383
0.000491417
0.000503171
0.000514728
0.000525134
0.000535704
0.000544995
0.000554206
0.000562629
0.000571332
0.000578622
0.000586122
0.000593275
0.000600489
0.000606029
0.000612361
0.000618581
0.000623872
0.000627175
0.000632206
0.000636173
0.000655127
0.000664305
0.000661974
0.000650885
0.000654054
0.000648296
0.000607944
0.000572983
0.000548713
0.000466047
0.000353138
0.000252309
9.87861e-05
-9.27312e-05
-0.000321505
-0.000548608
-0.000684777
-0.000952274
-0.0012214
-0.00142845
-0.00149591
-0.00156788
-0.0016557
-0.0016404
-0.00152356
-0.00146732
-0.00140593
-0.00136244
-0.00126634
-0.00116192
-0.00111529
-0.00105418
-0.000971113
-0.000913371
-0.000868478
-0.000813263
-0.000757839
-0.000715347
-0.000673965
-0.000629128
-0.000587395
-0.000551233
-0.000513073
-0.0004747
-0.000438765
-0.000404608
-0.000368462
-0.000333482
-0.000299549
-0.000266084
-0.000231535
-0.000198478
-0.000165577
-0.000133141
-0.000100366
-6.90208e-05
-3.75704e-05
-6.9628e-06
2.35863e-05
5.27756e-05
8.19879e-05
0.000110023
0.000137824
0.000164256
0.000190546
0.000215468
0.000240082
0.000263278
0.000286223
0.000307727
0.000328894
0.000348626
0.000368096
0.000386121
0.000403821
0.000420153
0.000436292
0.000451
0.000465472
0.00047876
0.000491928
0.000503675
0.000515444
0.000526284
0.00053694
0.00054628
0.000556177
0.00056524
0.00057382
0.000581596
0.000590668
0.000598343
0.00060521
0.000612689
0.000621715
0.000627438
0.000632986
0.000641647
0.000649394
0.000650326
0.000681363
0.000686588
0.0006904
0.000694671
0.000693856
0.000680689
0.000665088
0.000640784
0.000587916
0.000518935
0.000424616
0.000273245
0.000145555
-3.07706e-05
-0.000421411
-0.00059239
-0.000650254
-0.00101734
-0.00122952
-0.00148305
-0.00176035
-0.00179607
-0.00168869
-0.00174269
-0.00161787
-0.00152352
-0.00150045
-0.00140488
-0.00130406
-0.00120064
-0.00112922
-0.00106703
-0.000988335
-0.000920984
-0.000866983
-0.000811558
-0.000755871
-0.000708139
-0.000663859
-0.000619766
-0.000576989
-0.000538566
-0.000501029
-0.000463749
-0.000427119
-0.000392907
-0.000358409
-0.000324182
-0.000290219
-0.000257651
-0.000224454
-0.000191838
-0.000159343
-0.000127843
-9.58808e-05
-6.48421e-05
-3.38986e-05
-3.93538e-06
2.61764e-05
5.51223e-05
8.3924e-05
0.000111602
0.000139163
0.000165415
0.000191444
0.000216192
0.000240666
0.000263764
0.000286571
0.000307999
0.0003291
0.000348822
0.000368226
0.000386233
0.000403964
0.000420358
0.000436456
0.000451239
0.000465884
0.000479249
0.000492404
0.000504455
0.000516538
0.000527375
0.000538224
0.000548302
0.00055849
0.000567486
0.000576962
0.000585977
0.000594965
0.000603033
0.000612278
0.000620999
0.000629404
0.000637587
0.000647414
0.000655858
0.000663714
0.000672145
0.000707461
0.000711487
0.000725865
0.000741319
0.000733474
0.00072439
0.000738722
0.000712436
0.00063238
0.000590284
0.000532215
0.00034512
0.000157075
1.42518e-05
-0.000230963
-0.000575978
-0.000952986
-0.000917089
-0.00103183
-0.00134492
-0.00138094
-0.00168595
-0.00179531
-0.00159621
-0.00167891
-0.00168755
-0.00159346
-0.0013771
-0.00130443
-0.00127
-0.00114652
-0.00105052
-0.00100316
-0.000939099
-0.000861133
-0.000804364
-0.000757957
-0.000703617
-0.000651063
-0.000610076
-0.000569621
-0.000526483
-0.000487303
-0.000453099
-0.000416988
-0.00038085
-0.00034726
-0.000315144
-0.000281346
-0.000248553
-0.000216745
-0.000185313
-0.000153025
-0.00012196
-9.10789e-05
-6.06343e-05
-2.997e-05
-5.16625e-07
2.8933e-05
5.75853e-05
8.61074e-05
0.000113412
0.000140615
0.000166717
0.000192522
0.000217058
0.000241354
0.00026438
0.000287036
0.000308377
0.000329412
0.000349113
0.000368437
0.000386462
0.000404206
0.000420617
0.000436716
0.000451635
0.000466353
0.000479773
0.000493075
0.000505416
0.0005176
0.000528596
0.000539891
0.000550422
0.000560716
0.000570207
0.000580662
0.000590215
0.000599403
0.000608845
0.000619848
0.000628965
0.000638113
0.000649631
0.000662003
0.000670207
0.000680932
0.000696522
0.000731093
0.000749539
0.000763395
0.000772619
0.000788364
0.0007991
0.000786283
0.000767753
0.000759454
0.000692152
0.000561126
0.000468356
0.000311032
5.3712e-05
9.42537e-06
-0.000438086
-0.00115023
-0.00057651
-0.000516097
-0.00103671
-0.000583264
-0.00100888
-0.00123254
-0.0010732
-0.0016366
-0.00176095
-0.00152776
-0.00144655
-0.00133467
-0.00124013
-0.00115626
-0.00107906
-0.00100408
-0.000929908
-0.000865912
-0.000807631
-0.000749337
-0.000695951
-0.000647125
-0.000600616
-0.000557023
-0.000517065
-0.000477812
-0.000440461
-0.000405314
-0.00037141
-0.000337167
-0.00030449
-0.000272507
-0.000240799
-0.000208808
-0.000177971
-0.000147057
-0.000116471
-8.58294e-05
-5.61285e-05
-2.62587e-05
2.93865e-06
3.2012e-05
6.01364e-05
8.82412e-05
0.000115372
0.00014225
0.00016806
0.000193642
0.000218066
0.000242148
0.000265035
0.000287576
0.000308877
0.000329789
0.000349444
0.000368744
0.000386801
0.000404472
0.000420924
0.00043712
0.000452106
0.000466784
0.000480424
0.000493958
0.000506318
0.000518607
0.000530181
0.000541729
0.000552201
0.000563144
0.000573685
0.000584083
0.000593855
0.000604983
0.000615589
0.000625908
0.000636898
0.000649925
0.0006614
0.000673286
0.000687898
0.000703433
0.000715775
0.000757811
0.000783605
0.000800951
0.000813618
0.000842773
0.000864742
0.000851561
0.00085172
0.000870872
0.00079171
0.000663254
0.000619691
0.000493709
0.000201706
-2.36449e-05
-0.000325731
-0.000624899
-0.000435593
-0.000321112
-0.000465056
-0.000496789
-0.000617582
-0.000509984
-0.000595577
-0.00110893
-0.00141372
-0.00144392
-0.00151017
-0.0013664
-0.00120595
-0.00116135
-0.00109527
-0.000995528
-0.000925022
-0.00087309
-0.000806848
-0.000739626
-0.000689822
-0.000643857
-0.000592419
-0.000545491
-0.000507518
-0.000469335
-0.000429822
-0.000394052
-0.000361783
-0.000328227
-0.000294944
-0.000263554
-0.00023312
-0.000201652
-0.000170954
-0.000140899
-0.000111147
-8.09254e-05
-5.1597e-05
-2.24313e-05
6.28452e-06
3.50207e-05
6.27957e-05
9.04371e-05
0.000117309
0.00014393
0.0001695
0.000194813
0.000219107
0.000243008
0.000265771
0.000288174
0.000309422
0.000330225
0.000349857
0.000369105
0.000387159
0.000404803
0.000421328
0.000437528
0.000452569
0.00046734
0.000481145
0.000494727
0.000507268
0.000519838
0.000531656
0.000543344
0.000554287
0.000565763
0.000576621
0.000587458
0.00059825
0.000610199
0.00062133
0.000632822
0.000645702
0.00066001
0.00067262
0.000687004
0.000705101
0.000723021
0.000737393
0.000787061
0.000806717
0.000837386
0.000870297
0.000889347
0.000911004
0.000949016
0.000956447
0.000918044
0.000921756
0.000931101
0.000726566
0.000502295
0.000299406
-0.000108311
-0.000298758
-0.00039311
-0.000541529
-0.00057293
-0.000396048
-0.000501974
-0.000440902
-0.000398048
-0.000434516
-0.000605339
-0.000888396
-0.00127452
-0.00137894
-0.00130795
-0.00125679
-0.00116657
-0.00106513
-0.000997228
-0.000937316
-0.000862579
-0.000797045
-0.000743805
-0.000686649
-0.000630633
-0.000585306
-0.00054213
-0.000497339
-0.000457347
-0.000422361
-0.000386442
-0.000351125
-0.000318872
-0.000287857
-0.000255816
-0.000224879
-0.000195027
-0.000165241
-0.000134983
-0.000105687
-7.65628e-05
-4.75857e-05
-1.85821e-05
9.57962e-06
3.77123e-05
6.53142e-05
9.26806e-05
0.000119172
0.000145481
0.000170941
0.000196017
0.000220106
0.000243845
0.00026655
0.000288794
0.000309953
0.000330688
0.00035032
0.00036947
0.00038752
0.000405191
0.00042176
0.000437898
0.000453059
0.000467972
0.000481809
0.00049541
0.00050832
0.000521095
0.000532874
0.000544907
0.000556608
0.000568117
0.000579017
0.0005911
0.00060289
0.000614331
0.000626477
0.000640847
0.000654004
0.000667442
0.000684368
0.000703143
0.000718835
0.000738266
0.000763998
0.000810779
0.000836784
0.000871428
0.000912202
0.000942503
0.000968965
0.00101832
0.00105336
0.0010377
0.0010447
0.00106161
0.000980071
0.00071328
8.93523e-05
-0.000385046
-0.000403907
-0.000478135
-0.000516913
-0.000473672
-0.000430864
-0.000498649
-0.000420487
-0.000387966
-0.000405831
-0.000430419
-0.000464298
-0.000801157
-0.00122221
-0.00133886
-0.00124874
-0.00111876
-0.00105771
-0.00101142
-0.000932494
-0.000851964
-0.000794986
-0.000741976
-0.000681148
-0.000624559
-0.000578703
-0.000535075
-0.000490412
-0.000449607
-0.000413853
-0.000378689
-0.000343784
-0.000311074
-0.000280282
-0.00024921
-0.000218561
-0.000188807
-0.00015964
-0.000130106
-0.000101059
-7.23045e-05
-4.3882e-05
-1.53405e-05
1.25888e-05
4.03389e-05
6.75782e-05
9.4655e-05
0.000120957
0.000146981
0.00017224
0.00019713
0.000221096
0.000244657
0.000267266
0.000289394
0.000310504
0.000331144
0.000350742
0.000369845
0.00038792
0.000405545
0.000422136
0.000438323
0.000453565
0.000468459
0.000482432
0.000496211
0.000509212
0.000522047
0.000534215
0.00054653
0.000558292
0.000570184
0.00058188
0.000594183
0.000606194
0.000618862
0.00063212
0.000646512
0.000660898
0.000676892
0.000694762
0.000714153
0.000733583
0.000756504
0.000783514
0.000829309
0.000870698
0.000903011
0.000935858
0.000991364
0.00104382
0.00107236
0.00111423
0.00118132
0.00118185
0.00113125
0.00124815
0.000913078
-7.57197e-05
-0.000525085
-0.000484296
-0.000442631
-0.000415967
-0.00045706
-0.000507138
-0.000409842
-0.000403285
-0.000456089
-0.00040946
-0.000304813
-0.000301734
-0.000522
-0.00102543
-0.00126378
-0.00118252
-0.0011323
-0.00107617
-0.000984452
-0.000912061
-0.000864267
-0.000799198
-0.000725905
-0.000673635
-0.000628112
-0.000573432
-0.000523557
-0.000485351
-0.000446674
-0.000405773
-0.000370268
-0.000338818
-0.000305721
-0.000273075
-0.000243212
-0.000214013
-0.000183775
-0.00015444
-0.00012601
-9.74798e-05
-6.86153e-05
-4.05456e-05
-1.26803e-05
1.50592e-05
4.26826e-05
6.95662e-05
9.62868e-05
0.000122491
0.000148333
0.000173364
0.000198073
0.000221979
0.000245391
0.000267885
0.000289923
0.000311013
0.000331553
0.000351112
0.000370196
0.000388289
0.000405848
0.000422478
0.000438727
0.000453997
0.000468864
0.000483018
0.00049693
0.00050992
0.000522875
0.000535474
0.000547877
0.000559609
0.000572096
0.000584479
0.000596556
0.000608919
0.00062321
0.00063694
0.000650638
0.000667115
0.000686076
0.000702819
0.000722146
0.000748271
0.000774185
0.000796471
0.000847894
0.000885572
0.00092843
0.000972689
0.00102436
0.00108544
0.00113698
0.00118338
0.00126307
0.00131162
0.00130246
0.00135917
0.00049322
-0.000374684
-0.000393103
-0.000448815
-0.000457833
-0.000448804
-0.000454772
-0.000451367
-0.000410784
-0.000426256
-0.000395992
-0.000366528
-0.000329636
-0.00033227
-0.000345382
-0.000749501
-0.00118537
-0.00116133
-0.0011342
-0.00105351
-0.000976304
-0.000919201
-0.000856369
-0.000788805
-0.000728295
-0.000672662
-0.000618901
-0.000568997
-0.000522776
-0.000479527
-0.000439515
-0.000402203
-0.00036644
-0.000332624
-0.00030053
-0.000269421
-0.000238826
-0.000209208
-0.000180069
-0.000151206
-0.00012248
-9.42451e-05
-6.60615e-05
-3.81217e-05
-1.03063e-05
1.70706e-05
4.43461e-05
7.11617e-05
9.77171e-05
0.000123679
0.000149346
0.000174318
0.000198876
0.000222654
0.000245972
0.000268428
0.000290368
0.000311397
0.000331894
0.000351456
0.000370475
0.000388553
0.000406134
0.0004228
0.000438989
0.000454322
0.000469306
0.000483471
0.000497345
0.000510592
0.000523719
0.000536216
0.000548795
0.000561119
0.000573597
0.000585827
0.000598804
0.000611956
0.000625629
0.000639909
0.00065586
0.000672338
0.000690214
0.000710255
0.000732732
0.000756379
0.00078355
0.000814278
0.00086116
0.000894012
0.000945595
0.00100453
0.00104858
0.00110108
0.001186
0.00126724
0.00131535
0.00136833
0.00148791
0.00123875
0.00013581
-0.000464987
-0.000353183
-0.000423072
-0.00047561
-0.000463539
-0.000418489
-0.000406115
-0.000450295
-0.000432053
-0.000353492
-0.000352686
-0.000363541
-0.000303238
-0.000262519
-0.000554805
-0.00105272
-0.00118183
-0.00109174
-0.00102398
-0.000990901
-0.000926898
-0.000839906
-0.000780342
-0.000734804
-0.000672106
-0.000609861
-0.000565673
-0.000523601
-0.000475672
-0.000433778
-0.000399705
-0.000364393
-0.000328418
-0.000296641
-0.000266994
-0.000236082
-0.000205862
-0.000177398
-0.000149078
-0.000120147
-9.19595e-05
-6.42705e-05
-3.65114e-05
-8.6842e-06
1.8497e-05
4.54942e-05
7.22396e-05
9.87158e-05
0.000124518
0.000150042
0.000174975
0.000199444
0.000223128
0.000246374
0.000268809
0.000290682
0.000311668
0.000332136
0.000351696
0.000370671
0.000388746
0.000406338
0.000423017
0.000439178
0.000454565
0.000469602
0.000483773
0.000497661
0.00051107
0.000524262
0.000536738
0.000549491
0.000562126
0.000574569
0.000586849
0.000600412
0.000613907
0.000627296
0.000642168
0.000659401
0.000675714
0.000693242
0.000715653
0.000739879
0.000761713
0.000790143
0.000827356
0.000865197
0.000911095
0.000953768
0.00100187
0.00106787
0.00113611
0.00119834
0.00127245
0.00135486
0.00147194
0.00160815
0.00112252
0.000180816
-0.000431131
-0.000479012
-0.000435459
-0.000410393
-0.000434153
-0.000451725
-0.000440675
-0.000408559
-0.000384291
-0.000399426
-0.000363006
-0.000325801
-0.000291786
-0.000241233
-0.000500587
-0.000918164
-0.00113359
-0.00109808
-0.00105017
-0.000972755
-0.000904239
-0.000853503
-0.000789926
-0.00072028
-0.00066619
-0.000618218
-0.000564693
-0.000515401
-0.000475319
-0.000436071
-0.000396141
-0.000360599
-0.000328492
-0.00029591
-0.000264042
-0.000234352
-0.00020538
-0.000175955
-0.000147242
-0.000119222
-9.12214e-05
-6.30785e-05
-3.5489e-05
-8.0911e-06
1.91578e-05
4.62546e-05
7.27923e-05
9.91162e-05
0.000124979
0.000150469
0.000175277
0.000199701
0.000223409
0.000246602
0.000268976
0.000290837
0.00031184
0.000332262
0.000351791
0.000370785
0.000388881
0.000406415
0.000423095
0.000439334
0.000454711
0.00046966
0.000483946
0.000497958
0.000511219
0.000524388
0.000537231
0.000549963
0.000562236
0.000575097
0.000587973
0.000600875
0.000614165
0.000629076
0.00064398
0.000659446
0.000677324
0.000697567
0.000717208
0.000739849
0.000768109
0.000797491
0.000826579
0.000865197
0.000911095
0.000953768
0.00100187
0.00106787
0.00113611
0.00119834
0.00127245
0.00135486
0.00147194
0.00160815
0.00112252
0.000180816
-0.000431131
-0.000479012
-0.000435459
-0.000410393
-0.000434153
-0.000451725
-0.000440675
-0.000408559
-0.000384291
-0.000399426
-0.000363006
-0.000325801
-0.000291786
-0.000241233
-0.000500587
-0.000918164
-0.00113359
-0.00109808
-0.00105017
-0.000972755
-0.000904239
-0.000853503
-0.000789926
-0.00072028
-0.00066619
-0.000618218
-0.000564693
-0.000515401
-0.000475319
-0.000436071
-0.000396141
-0.000360599
-0.000328492
-0.00029591
-0.000264042
-0.000234352
-0.00020538
-0.000175955
-0.000147242
-0.000119222
-9.12214e-05
-6.30785e-05
-3.5489e-05
-8.0911e-06
1.91578e-05
4.62546e-05
7.27923e-05
9.91162e-05
0.000124979
0.000150469
0.000175277
0.000199701
0.000223409
0.000246602
0.000268976
0.000290837
0.00031184
0.000332262
0.000351791
0.000370785
0.000388881
0.000406415
0.000423095
0.000439334
0.000454711
0.00046966
0.000483946
0.000497958
0.000511219
0.000524388
0.000537231
0.000549963
0.000562236
0.000575097
0.000587973
0.000600875
0.000614165
0.000629076
0.00064398
0.000659446
0.000677324
0.000697567
0.000717208
0.000739849
0.000768109
0.000797491
0.000826579
0.00086116
0.000894012
0.000945595
0.00100453
0.00104858
0.00110108
0.001186
0.00126724
0.00131535
0.00136833
0.00148791
0.00123875
0.00013581
-0.000464987
-0.000353183
-0.000423072
-0.00047561
-0.000463539
-0.000418489
-0.000406115
-0.000450295
-0.000432053
-0.000353492
-0.000352686
-0.000363541
-0.000303238
-0.000262519
-0.000554805
-0.00105272
-0.00118183
-0.00109174
-0.00102398
-0.000990901
-0.000926898
-0.000839906
-0.000780342
-0.000734804
-0.000672106
-0.000609861
-0.000565673
-0.000523601
-0.000475672
-0.000433778
-0.000399705
-0.000364393
-0.000328418
-0.000296641
-0.000266994
-0.000236082
-0.000205862
-0.000177398
-0.000149078
-0.000120147
-9.19595e-05
-6.42705e-05
-3.65114e-05
-8.6842e-06
1.8497e-05
4.54942e-05
7.22396e-05
9.87158e-05
0.000124518
0.000150042
0.000174975
0.000199444
0.000223128
0.000246374
0.000268809
0.000290682
0.000311668
0.000332136
0.000351696
0.000370671
0.000388746
0.000406338
0.000423017
0.000439178
0.000454565
0.000469602
0.000483773
0.000497661
0.00051107
0.000524262
0.000536738
0.000549491
0.000562126
0.000574569
0.000586849
0.000600412
0.000613907
0.000627296
0.000642168
0.000659401
0.000675714
0.000693242
0.000715653
0.000739879