# vtk DataFile Version 3.0
fluid_state
ASCII
DATASET RECTILINEAR_GRID
DIMENSIONS 100 40 1
X_COORDINATES 100 float
0.5 1.5 2.5 3.5 4.5 5.5 6.5 7.5 8.5 9.5 10.5 11.5 12.5 13.5 14.5 15.5 16.5 17.5 18.5 19.5 20.5 21.5 22.5 23.5 24.5 25.5 26.5 27.5 28.5 29.5 30.5 31.5 32.5 33.5 34.5 35.5 36.5 37.5 38.5 39.5 40.5 41.5 42.5 43.5 44.5 45.5 46.5 47.5 48.5 49.5 50.5 51.5 52.5 53.5 54.5 55.5 56.5 57.5 58.5 59.5 60.5 61.5 62.5 63.5 64.5 65.5 66.5 67.5 68.5 69.5 70.5 71.5 72.5 73.5 74.5 75.5 76.5 77.5 78.5 79.5 80.5 81.5 82.5 83.5 84.5 85.5 86.5 87.5 88.5 89.5 90.5 91.5 92.5 93.5 94.5 95.5 96.5 97.5 98.5 99.5 
Y_COORDINATES 40 float
0.5 1.5 2.5 3.5 4.5 5.5 6.5 7.5 8.5 9.5 10.5 11.5 12.5 13.5 14.5 15.5 16.5 17.5 18.5 19.5 20.5 21.5 22.5 23.5 24.5 25.5 26.5 27.5 28.5 29.5 30.5 31.5 32.5 33.5 34.5 35.5 36.5 37.5 38.5 39.5 
Z_COORDINATES 1 float
0
POINT_DATA 4000
SCALARS density_difference float 1
LOOKUP_TABLE default
-0.000287819
-0.000321041
-0.000364583
-0.000307844
-0.000275783
-0.000300163
-0.000169413
7.60487e-06
9.56356e-05
0.000325553
0.000679527
0.000987148
0.00138432
0.00194101
0.00253248
0.00318975
0.00403377
0.00493239
0.00585183
0.0069334
0.00803521
0.00906742
0.010084
0.010991
0.0116972
0.0122215
0.0125002
0.0125368
0.0123131
0.0118517
0.0112592
0.0104654
0.00957002
0.00873994
0.00785273
0.00701496
0.00640349
0.00587424
0.00545878
0.00530517
0.00529188
0.00535316
0.0055794
0.00590686
0.00622561
0.00656398
0.00692097
0.00721204
0.00742243
0.00758035
0.00765461
0.00761844
0.00749794
0.00730371
0.00702552
0.00668272
0.00630511
0.00590155
0.00548538
0.00508017
0.00469848
0.00434381
0.00402596
0.00375128
0.00351988
0.00333164
0.00318776
0.0030828
0.00300814
0.00295152
0.00289696
0.0028242
0.00271445
0.00255115
0.00232416
0.0020319
0.0016824
0.00129071
0.000878213
0.000469383
8.60354e-05
-0.000255352
-0.000542602
-0.000767995
-0.000932379
-0.00104138
-0.00109939
-0.00110933
-0.00108
-0.00102136
-0.00093933
-0.000837606
-0.000724475
-0.000613304
-0.000518159
-0.000436326
-0.000360694
-0.00031436
-0.000314019
-0.000310193
-0.000309967
-0.000346664
-0.000315772
-0.000286946
-0.000333274
-0.000258834
-0.00010124
-6.64729e-05
7.87419e-05
0.000397488
0.000627279
0.000910317
0.00138848
0.00190498
0.00243244
0.00311233
0.00394376
0.0047919
0.00573624
0.00675922
0.00780619
0.00888391
0.00985687
0.010696
0.0114403
0.0119538
0.0121997
0.0122317
0.0120603
0.0115901
0.0109628
0.0102751
0.00938286
0.00850045
0.0077343
0.00691946
0.00624593
0.00581086
0.00544773
0.0052362
0.00526325
0.00538886
0.00557861
0.00589186
0.00625359
0.00657915
0.00689326
0.00718795
0.00739925
0.00752065
0.00757646
0.00754534
0.00741339
0.00720386
0.00693043
0.00659079
0.00620555
0.00579875
0.00538318
0.00497001
0.0045796
0.00422066
0.00389996
0.00362223
0.0033942
0.00321262
0.00307724
0.00298099
0.00291641
0.00286666
0.00281723
0.00274691
0.00263866
0.00247527
0.00224985
0.0019602
0.00161466
0.00122854
0.00082379
0.000422928
4.58928e-05
-0.000288314
-0.000567756
-0.000786761
-0.000948798
-0.00105391
-0.00110716
-0.00111565
-0.00109166
-0.00103679
-0.000955401
-0.000855271
-0.000751185
-0.000648477
-0.000548695
-0.000454847
-0.000387217
-0.000352883
-0.000325781
-0.000296025
-0.000419556
-0.00039559
-0.000373941
-0.000412972
-0.000379623
-0.000258235
-0.000243756
-0.000163303
0.00010278
0.000265157
0.000443258
0.000854442
0.00125077
0.00163168
0.00220969
0.00290426
0.00356864
0.00439169
0.0054032
0.00635429
0.00737451
0.00846309
0.0094554
0.0103338
0.0110778
0.0115772
0.0118926
0.0119109
0.0116925
0.011306
0.0106327
0.00988221
0.00909315
0.00814654
0.00731247
0.00661124
0.00590464
0.00540281
0.00514435
0.00496806
0.004954
0.00515252
0.00542321
0.00572891
0.00611428
0.0065048
0.00682672
0.00710275
0.00732996
0.00745679
0.00748623
0.0074421
0.00731129
0.00708711
0.00679638
0.00645041
0.00605379
0.0056266
0.00519353
0.00476316
0.00435136
0.00397297
0.00363901
0.00335132
0.00311859
0.00293925
0.00281189
0.00272657
0.00267592
0.00264076
0.00260504
0.00254587
0.0024465
0.00228907
0.00206687
0.00177798
0.0014321
0.00104566
0.000639909
0.000238536
-0.000137002
-0.000466663
-0.000742345
-0.00095733
-0.00111291
-0.00120948
-0.00125975
-0.0012689
-0.00124257
-0.00118254
-0.00110271
-0.00100783
-0.000902492
-0.000788992
-0.000681071
-0.000589352
-0.000521254
-0.000462079
-0.00041354
-0.000403778
-0.000598108
-0.000566309
-0.000588641
-0.000571754
-0.000467977
-0.000447509
-0.000427253
-0.000200805
-5.85156e-05
1.43824e-05
0.000341115
0.000665563
0.000890303
0.00129551
0.00182989
0.00235948
0.00296158
0.00376789
0.00463006
0.00561253
0.00669249
0.00770421
0.00876125
0.00974009
0.0104853
0.0110356
0.0113873
0.011458
0.0111984
0.0108157
0.0102218
0.0093518
0.0085446
0.0076874
0.0067203
0.00597441
0.00536347
0.00479116
0.00448278
0.00440784
0.00442783
0.00461833
0.00498786
0.00539861
0.00581784
0.00626503
0.0066714
0.00697719
0.00720503
0.00735347
0.00739051
0.00732393
0.00717896
0.00694874
0.00663625
0.00626454
0.00584979
0.00539826
0.0049325
0.00447212
0.00403169
0.00362219
0.00326116
0.00295419
0.00270773
0.00252089
0.00239434
0.00231583
0.0022756
0.00225365
0.00223202
0.0021857
0.00209681
0.00194744
0.00172963
0.00144292
0.00109714
0.000709817
0.000301717
-0.000100283
-0.000475632
-0.00080452
-0.00107923
-0.00128961
-0.00144006
-0.00153415
-0.00158331
-0.00158736
-0.00155661
-0.00149767
-0.00141931
-0.00131746
-0.00120217
-0.00108363
-0.000974048
-0.000870286
-0.000776594
-0.000699277
-0.000657971
-0.000635292
-0.000917523
-0.000897927
-0.000859929
-0.000762777
-0.000726837
-0.00070759
-0.000518821
-0.000381681
-0.000368329
-8.64208e-05
0.000186012
0.000242068
0.000533401
0.000945363
0.00119166
0.00154642
0.00220065
0.00285625
0.00350001
0.00451864
0.00557681
0.00663804
0.00773646
0.00872753
0.00956807
0.010274
0.010565
0.0107222
0.0106017
0.0100991
0.00956343
0.00880106
0.00782801
0.00700717
0.00612538
0.0052159
0.00459322
0.00410707
0.00370687
0.00359887
0.0037208
0.00393839
0.00431804
0.00484362
0.00537694
0.00587857
0.00636133
0.0067578
0.00702324
0.00718271
0.00724223
0.0071804
0.00701504
0.00676863
0.00644153
0.00604065
0.005592
0.00510832
0.00460384
0.00409894
0.00361662
0.00316789
0.00277062
0.00243481
0.00216932
0.00197163
0.00184231
0.0017685
0.00173789
0.00172819
0.00171947
0.00168563
0.0016063
0.00146382
0.00124915
0.000963432
0.000614854
0.000223748
-0.000188897
-0.000594038
-0.000973391
-0.0013042
-0.00157835
-0.00178676
-0.00193836
-0.00203331
-0.00208089
-0.00208486
-0.00206097
-0.0020067
-0.00192556
-0.00182091
-0.00170959
-0.00158667
-0.00145788
-0.00132961
-0.00121953
-0.00112727
-0.00105224
-0.000974125
-0.00138533
-0.00129474
-0.00117672
-0.00109509
-0.00105876
-0.000890536
-0.000714095
-0.000692716
-0.000482589
-0.000194986
-0.0001973
-2.04286e-05
0.000288443
0.000347015
0.000452677
0.000763295
0.00112638
0.0015258
0.00222915
0.00303715
0.00393609
0.00517429
0.00628838
0.00736546
0.00833808
0.00913826
0.00958721
0.009758
0.00977093
0.00936345
0.00872272
0.00811779
0.00717958
0.00618283
0.00541103
0.00454459
0.00375078
0.00328749
0.0029575
0.00275745
0.00286191
0.0031767
0.00358721
0.0041344
0.00478199
0.00539813
0.00594412
0.00641943
0.00677139
0.00696908
0.00704169
0.00699767
0.00683066
0.00655937
0.00620832
0.00578041
0.00529006
0.00475999
0.00421002
0.00365402
0.00311856
0.00262261
0.00218403
0.00181303
0.00152242
0.00131042
0.00117469
0.00110231
0.0010789
0.00108033
0.00108296
0.0010608
0.000989766
0.000853001
0.00063905
0.000351168
-3.84509e-06
-0.000401847
-0.000822875
-0.00123566
-0.00162197
-0.00195657
-0.0022351
-0.00244919
-0.00260666
-0.00270575
-0.00276249
-0.00278037
-0.00276817
-0.00271944
-0.00264894
-0.00255509
-0.00244025
-0.00229727
-0.00214997
-0.00200032
-0.0018559
-0.00171072
-0.0015797
-0.00146542
-0.00191133
-0.00173613
-0.00160848
-0.00149522
-0.00130296
-0.00109406
-0.00103706
-0.000832217
-0.000492909
-0.000488315
-0.000376734
-2.0818e-05
-0.000133327
-0.000267648
-6.4879e-05
-3.40807e-05
-0.00022586
-4.85004e-06
0.000657386
0.00114827
0.00203005
0.00315716
0.00432954
0.00565115
0.00676555
0.00754432
0.0084145
0.00867747
0.00863598
0.00857767
0.00794806
0.00722152
0.0065622
0.00554117
0.00459691
0.00388992
0.00310366
0.00247363
0.00218948
0.00204323
0.00205579
0.00236579
0.00286374
0.00343606
0.00411056
0.0048321
0.00547706
0.00601109
0.00643474
0.00670314
0.00680405
0.00676861
0.00660914
0.00632563
0.00594277
0.00548079
0.00494972
0.00436638
0.00375882
0.00314626
0.00255282
0.00200225
0.00151729
0.00110979
0.000791195
0.000562463
0.000418556
0.000346004
0.00032628
0.000335786
0.000345878
0.000331232
0.000263842
0.000128593
-8.92877e-05
-0.000383632
-0.000748521
-0.00115681
-0.00158956
-0.00201223
-0.00240724
-0.0027498
-0.00303824
-0.00326174
-0.00343029
-0.00354494
-0.0036235
-0.00366126
-0.00366881
-0.00364334
-0.00359457
-0.0035025
-0.00337676
-0.00322138
-0.00305109
-0.00284982
-0.00264372
-0.00244079
-0.00225723
-0.00208018
-0.00249314
-0.00225792
-0.00205188
-0.00180566
-0.00155479
-0.0013873
-0.00118184
-0.000805317
-0.000669175
-0.000566106
-0.000193056
-0.000230164
-0.000424984
-0.000341114
-0.000625417
-0.00108145
-0.00128617
-0.00133749
-0.00145187
-0.00107536
-0.000140252
0.000684526
0.00204972
0.00336879
0.00481836
0.00588514
0.00684141
0.00748799
0.00756571
0.00759018
0.00732716
0.00649961
0.00583479
0.00510183
0.00403628
0.00321349
0.00259716
0.00192671
0.00149181
0.00139807
0.00144547
0.0016698
0.0021646
0.00280926
0.00350055
0.00424283
0.00497261
0.00558292
0.00604877
0.00637068
0.00652066
0.00649896
0.00633718
0.006049
0.00564163
0.00513901
0.00456334
0.00392888
0.00326005
0.00258705
0.00193598
0.00133156
0.00079866
0.000355081
8.32181e-06
-0.000238427
-0.00039311
-0.000468405
-0.000488693
-0.000475861
-0.000463589
-0.000476065
-0.000545292
-0.000684421
-0.000910815
-0.00121555
-0.00159373
-0.00201563
-0.00246216
-0.00289677
-0.00330439
-0.00365981
-0.00396219
-0.0042009
-0.0043916
-0.0045334
-0.00464123
-0.00470934
-0.00475313
-0.00475752
-0.00472073
-0.00462801
-0.00449872
-0.00431641
-0.00408995
-0.00382763
-0.00356562
-0.00328686
-0.00301114
-0.00274143
-0.0031049
-0.00276835
-0.00242953
-0.00209596
-0.00184372
-0.00154086
-0.00111383
-0.000860966
-0.000750948
-0.000260171
-9.97065e-05
-0.0003626
-0.000182491
-0.00038607
-0.00122384
-0.00170217
-0.0019512
-0.00265841
-0.0034427
-0.00317893
-0.00280253
-0.00199359
-0.000462962
0.000711566
0.00241541
0.00418628
0.00496354
0.00611342
0.00674828
0.00656589
0.00662616
0.0062166
0.00528539
0.00465174
0.00387358
0.00284917
0.00214551
0.00163714
0.00112406
0.00088994
0.000980484
0.00121281
0.00161991
0.0022568
0.00299109
0.00373024
0.00446698
0.00513308
0.00564185
0.00598618
0.00616786
0.00617215
0.00600885
0.00570989
0.0052854
0.0047498
0.00412751
0.00344471
0.00272173
0.001992
0.00128603
0.000634352
5.84391e-05
-0.000418459
-0.000790795
-0.0010537
-0.00122025
-0.0013011
-0.00132587
-0.00131553
-0.00130775
-0.00132506
-0.00140253
-0.00155162
-0.00179098
-0.00210979
-0.0025038
-0.00294102
-0.00340286
-0.00385227
-0.00427583
-0.00464722
-0.00496887
-0.00523218
-0.00545402
-0.00562994
-0.00577718
-0.00588872
-0.00597065
-0.00599692
-0.00597224
-0.00588313
-0.00573203
-0.00549967
-0.00522091
-0.00490239
-0.00455483
-0.00417508
-0.00380948
-0.00344765
-0.00368753
-0.00324092
-0.00280849
-0.00238632
-0.00197688
-0.00152625
-0.00114914
-0.000864714
-0.000393635
-3.17382e-05
-0.000142303
9.39512e-05
3.48022e-05
-0.000674227
-0.00102136
-0.00169717
-0.00298899
-0.00391653
-0.00422068
-0.00468396
-0.00547884
-0.00480844
-0.00340465
-0.00142585
-0.000110534
0.00195059
0.00331954
0.00468667
0.00585464
0.0060836
0.00601134
0.00605683
0.00534164
0.00442032
0.00382097
0.00297522
0.00203321
0.00147077
0.00106405
0.000723744
0.000684597
0.000935246
0.0013171
0.0018601
0.00256725
0.00331612
0.0040229
0.00467556
0.00520826
0.00556754
0.00575032
0.00576926
0.00561347
0.00530336
0.00486031
0.00430306
0.00364449
0.00291961
0.0021531
0.00137942
0.000627929
-6.20995e-05
-0.000671609
-0.00117482
-0.00156786
-0.00184395
-0.0020215
-0.00211021
-0.00214341
-0.0021417
-0.00214515
-0.00217472
-0.00226672
-0.0024311
-0.00268701
-0.0030224
-0.00343327
-0.00388654
-0.00436495
-0.00483108
-0.00527256
-0.00566419
-0.00601201
-0.00630734
-0.00656658
-0.00678563
-0.00698073
-0.00713561
-0.00724848
-0.00729735
-0.00728534
-0.00718353
-0.00699489
-0.0067245
-0.00639799
-0.00599628
-0.00555113
-0.00509257
-0.00463606
-0.00415329
-0.00428042
-0.003699
-0.00314934
-0.00261571
-0.00204778
-0.00153468
-0.00114143
-0.000599985
-4.60359e-05
-1.43637e-05
0.000213628
0.00064835
-3.2009e-06
-0.000493823
-0.000735875
-0.00174942
-0.00311567
-0.00411553
-0.00503988
-0.00633144
-0.00670699
-0.00640641
-0.00583567
-0.00348963
-0.00259198
-0.000644252
0.00213672
0.00351865
0.00477081
0.00608383
0.00602395
0.00587823
0.0058172
0.004899
0.00393745
0.00331344
0.00245353
0.00162396
0.00116822
0.000881
0.000702852
0.000826738
0.00119066
0.00166936
0.00226723
0.00296756
0.00364339
0.00424455
0.00474606
0.00510551
0.00528151
0.00529368
0.00514043
0.00482926
0.00437186
0.00379882
0.00311972
0.0023673
0.00156883
0.000765611
-1.59849e-05
-0.00073259
-0.00136393
-0.00188253
-0.00228783
-0.00257227
-0.00275762
-0.00285479
-0.00289963
-0.00291216
-0.00293309
-0.00298201
-0.0030945
-0.00327906
-0.00355461
-0.00390832
-0.00433652
-0.00480636
-0.00530144
-0.00578472
-0.00624583
-0.00666204
-0.00704017
-0.00737178
-0.00767369
-0.00794057
-0.00818049
-0.00837259
-0.00851545
-0.008585
-0.00857103
-0.00845034
-0.00823983
-0.0079346
-0.00753866
-0.00706361
-0.00655686
-0.00600857
-0.00542766
-0.00484556
-0.00484805
-0.00414216
-0.00346619
-0.00281017
-0.00217099
-0.00155254
-0.000937386
-0.000367055
-1.37656e-05
0.000354923
0.000867942
0.000519282
0.000234688
0.000350526
-0.000811711
-0.00153268
-0.0021231
-0.00415214
-0.00552638
-0.00560723
-0.00590261
-0.00530409
-0.00623974
-0.00682935
-0.00475334
-0.00217635
0.000873747
0.00268639
0.00430756
0.00603158
0.00686041
0.00643247
0.00628376
0.00587536
0.00473977
0.00382262
0.00310283
0.00224533
0.00154486
0.00119171
0.000994914
0.000965286
0.00119238
0.00161268
0.0021104
0.00268919
0.00329314
0.0038402
0.00427663
0.00459971
0.00476482
0.00476499
0.00460307
0.0042952
0.00383634
0.00325495
0.00256686
0.00180353
0.000988179
0.000168856
-0.000626438
-0.00135431
-0.00199351
-0.00251519
-0.00292182
-0.00320756
-0.00339633
-0.00350136
-0.00355983
-0.00359136
-0.00363549
-0.00371013
-0.00384854
-0.00405776
-0.00435547
-0.0047287
-0.00517395
-0.00565966
-0.00616992
-0.00667024
-0.00715195
-0.00759455
-0.00800451
-0.00837523
-0.0087208
-0.00903177
-0.00931013
-0.00953674
-0.00970515
-0.00978466
-0.00976534
-0.009638
-0.00940759
-0.00905677
-0.00860868
-0.00809204
-0.00751459
-0.0068656
-0.00619636
-0.00553123
-0.00534642
-0.0045839
-0.00379812
-0.00298339
-0.00227041
-0.00156953
-0.000803796
-0.000226639
0.000169672
0.000823831
0.00105331
0.000627759
0.00108202
0.000626834
-0.000518664
-0.00174128
-0.00293241
-0.00539435
-0.00495498
-0.00357966
-0.00486529
-0.00142459
-0.00201664
-0.00636412
-0.00438915
-0.00230034
-0.000644148
0.00216306
0.00500743
0.00613844
0.00786738
0.00816101
0.00724797
0.00684448
0.00609273
0.00484221
0.00386358
0.00309347
0.00227817
0.00168513
0.00140535
0.00129989
0.00135125
0.00162889
0.00203186
0.00248671
0.0029675
0.00343652
0.0038098
0.00407562
0.00421183
0.00420331
0.00403493
0.00372706
0.00327502
0.0026972
0.00200856
0.00124496
0.000428451
-0.000393033
-0.00118754
-0.0019108
-0.00254253
-0.00305482
-0.00345133
-0.00373014
-0.00391744
-0.00402891
-0.00410187
-0.00415606
-0.00422811
-0.00433383
-0.00450282
-0.00474058
-0.00506238
-0.0054559
-0.00591719
-0.00641703
-0.00694044
-0.00745686
-0.00795805
-0.00842616
-0.00886721
-0.00927531
-0.00965859
-0.0100062
-0.0103177
-0.0105723
-0.010755
-0.0108405
-0.0108243
-0.0106901
-0.0104305
-0.0100521
-0.00958325
-0.00901516
-0.00835667
-0.00765721
-0.00693487
-0.00614884
-0.00580691
-0.00493562
-0.0040505
-0.00317794
-0.00233315
-0.00152249
-0.000794941
-0.000100576
0.000563289
0.00100406
0.00106864
0.00158311
0.0014653
0.000248581
-0.00132055
-0.00468289
-0.00631336
-0.00624395
-0.00526441
-0.00356746
-0.00227698
-0.000551288
0.000794193
0.000144038
-0.000897926
-0.00218166
-0.00203481
0.0017681
0.00637644
0.00816187
0.0089778
0.00993814
0.00926179
0.00820711
0.00740798
0.00626309
0.00498087
0.00398449
0.00314694
0.00240961
0.0019101
0.00168522
0.00162304
0.00172185
0.00197601
0.00232169
0.00267958
0.00303891
0.00334671
0.00356202
0.00365871
0.0036366
0.00346924
0.00316214
0.00271722
0.00215057
0.00147004
0.000713147
-9.314e-05
-0.000903698
-0.00168463
-0.00239042
-0.00300128
-0.00349304
-0.00387001
-0.00413501
-0.00431643
-0.00443282
-0.00452067
-0.00459999
-0.00470314
-0.00484374
-0.00504646
-0.00531519
-0.00566179
-0.00607516
-0.00655041
-0.00706198
-0.00759587
-0.00812574
-0.00864338
-0.00913439
-0.00960261
-0.0100415
-0.0104549
-0.0108324
-0.0111687
-0.0114409
-0.0116333
-0.0117266
-0.0117097
-0.0115624
-0.0112878
-0.010898
-0.0103951
-0.00977777
-0.00908581
-0.00834026
-0.00752897
-0.00666971
-0.00615034
-0.00514545
-0.00419668
-0.00331972
-0.00235344
-0.00142333
-0.000717971
3.81224e-05
0.000851377
0.00120925
0.00143999
0.0022184
0.00162336
-0.0013628
-0.00629256
-0.00877252
-0.00805113
-0.00635168
-0.0055852
-0.00369836
-0.00150391
-0.00157399
0.000267338
0.00251604
0.00254192
0.000620703
0.000485995
0.00273837
0.00747928
0.0117029
0.0115087
0.0115225
0.0115167
0.0102313
0.00880932
0.00766752
0.00634724
0.00502052
0.00399999
0.00319598
0.00251835
0.002092
0.00190444
0.00186482
0.0019522
0.00216584
0.0024209
0.00267725
0.00290772
0.00307782
0.00314389
0.00310259
0.00293439
0.00263323
0.00219612
0.00164047
0.000974358
0.000230886
-0.000559185
-0.00135032
-0.00210781
-0.00278785
-0.00336957
-0.00383325
-0.00418498
-0.0044323
-0.00460495
-0.00472522
-0.00482789
-0.00493304
-0.0050682
-0.00524489
-0.00548186
-0.00578156
-0.00615192
-0.0065832
-0.00706964
-0.00758997
-0.00813083
-0.00867026
-0.00920029
-0.0097093
-0.0101977
-0.0106592
-0.0110947
-0.0114931
-0.0118434
-0.0121254
-0.0123253
-0.0124211
-0.0123948
-0.0122385
-0.01196
-0.0115492
-0.0110059
-0.0103679
-0.00965575
-0.00883848
-0.00795266
-0.00707329
-0.00627067
-0.00526709
-0.00425266
-0.00323341
-0.00228382
-0.00138391
-0.000460534
0.000344403
0.000928847
0.00148232
0.00216734
0.00234627
0.000351896
-0.00565962
-0.0106318
-0.00999356
-0.00879168
-0.00699886
-0.0051987
-0.00397919
-0.00212078
-0.000565436
0.000255609
0.00135709
0.00346448
0.0036211
0.00513255
0.00857078
0.0111184
0.0140482
0.0148947
0.0141484
0.0134733
0.0122565
0.0105985
0.00902234
0.00756474
0.00615557
0.00489037
0.00389012
0.00311773
0.00253276
0.00216164
0.00199685
0.00196105
0.0020333
0.00218544
0.0023652
0.002524
0.00264537
0.00268996
0.00263332
0.00245977
0.00216545
0.00173895
0.00119342
0.000543102
-0.000183008
-0.000953965
-0.00172264
-0.00245254
-0.00310372
-0.00365408
-0.00408784
-0.00441326
-0.00464259
-0.00480611
-0.00492989
-0.00504664
-0.00517636
-0.0053418
-0.00555245
-0.00582107
-0.00614884
-0.0065398
-0.00698563
-0.00747984
-0.00800517
-0.00854895
-0.00909367
-0.00963118
-0.0101515
-0.0106528
-0.0111295
-0.0115785
-0.011988
-0.0123455
-0.0126331
-0.0128328
-0.0129229
-0.0128901
-0.0127283
-0.0124306
-0.0119934
-0.0114369
-0.0107742
-0.0100007
-0.00914503
-0.00824325
-0.00728019
-0.00624831
-0.00524528
-0.00417045
-0.00305243
-0.00210187
-0.00121173
-0.000187872
0.000633799
0.0011803
0.00191854
0.0027139
0.00251999
-0.0023506
-0.0100341
-0.0122765
-0.0106709
-0.0091226
-0.00736875
-0.00511777
-0.00389853
-0.0027225
-0.000442696
0.000911837
0.00166717
0.00335786
0.00465244
0.00764554
0.0137365
0.0162863
0.0164504
0.0179387
0.0172011
0.0154679
0.0139857
0.0123449
0.0103932
0.00862234
0.00713488
0.00573775
0.00452571
0.00361758
0.00292767
0.00240955
0.00210625
0.00196834
0.00193601
0.00199089
0.00210172
0.00220977
0.00228918
0.0023112
0.00224574
0.00206999
0.00177918
0.00136338
0.000829618
0.000193254
-0.00051659
-0.00126788
-0.00201521
-0.0027197
-0.0033438
-0.0038657
-0.00427324
-0.00457563
-0.00478964
-0.00494597
-0.00507333
-0.00520259
-0.00535377
-0.00554513
-0.00578439
-0.00607928
-0.00642972
-0.00683644
-0.00729239
-0.00779053
-0.00831694
-0.00885991
-0.00940556
-0.00994527
-0.0104705
-0.0109781
-0.0114625
-0.0119169
-0.0123298
-0.0126891
-0.012976
-0.0131687
-0.0132502
-0.0132107
-0.0130357
-0.0127133
-0.012258
-0.0116869
-0.0109836
-0.010161
-0.0092868
-0.00835242
-0.0073078
-0.00617992
-0.00504575
-0.00395325
-0.0029241
-0.00184409
-0.000829131
-6.91036e-06
0.0008396
0.00181834
0.00242309
0.00249712
0.00278496
-0.00513289
-0.0126565
-0.0126209
-0.0112984
-0.00886393
-0.00736862
-0.00582762
-0.00370843
-0.00213469
-0.000893363
0.000868928
0.00235844
0.00365809
0.0059819
0.00732151
0.0137909
0.0198287
0.0202223
0.0206701
0.0194842
0.0175797
0.0156192
0.0135599
0.0115503
0.00963809
0.00786987
0.00636774
0.00509356
0.00402101
0.00320787
0.00261936
0.00220454
0.00196131
0.0018617
0.00184823
0.00189453
0.00196666
0.00202031
0.00202143
0.00194947
0.00177645
0.00148814
0.00108039
0.000558177
-6.65928e-05
-0.000763727
-0.00149826
-0.00222816
-0.00291291
-0.00351557
-0.00401547
-0.00440354
-0.004689
-0.00489219
-0.00504425
-0.00517535
-0.00531493
-0.00548297
-0.00569419
-0.00595484
-0.00626897
-0.00663539
-0.00705245
-0.00751396
-0.00801258
-0.00853703
-0.00907654
-0.00961943
-0.0101573
-0.010683
-0.0111917
-0.011677
-0.0121317
-0.0125446
-0.0129006
-0.0131807
-0.0133667
-0.0134412
-0.0133869
-0.0131925
-0.0128589
-0.0123881
-0.0117753
-0.0110409
-0.0102166
-0.00929091
-0.00827728
-0.00724571
-0.00604458
-0.00485822
-0.0037508
-0.0027362
-0.00162897
-0.000550694
0.000288691
0.00111382
0.00202832
0.00280363
0.00345412
0.0013747
-0.0078071
-0.0137424
-0.0130106
-0.0111332
-0.00893905
-0.00739704
-0.00600968
-0.00387046
-0.00192731
-0.00069538
0.000977859
0.00272731
0.00410671
0.00644871
0.00771557
0.0134553
0.0217258
0.0240533
0.0226597
0.02106
0.0192469
0.016897
0.0144431
0.012333
0.0103491
0.00842008
0.00679838
0.00546565
0.00431271
0.00340459
0.00274957
0.00227284
0.0019604
0.00180449
0.00174906
0.00175668
0.00180033
0.00183754
0.00182887
0.00175174
0.00158028
0.00129631
0.000894399
0.000379383
-0.000236401
-0.00092431
-0.00164801
-0.00236593
-0.00303723
-0.00362613
-0.0041119
-0.00448756
-0.00476284
-0.0049599
-0.00511005
-0.00524449
-0.00539158
-0.00557098
-0.0057953
-0.00606968
-0.00639581
-0.0067717
-0.00719432
-0.00765786
-0.00815503
-0.00867615
-0.0092112
-0.00974988
-0.0102842
-0.0108077
-0.0113143
-0.0117974
-0.0122497
-0.0126597
-0.0130104
-0.0132839
-0.0134631
-0.0135289
-0.0134614
-0.0132537
-0.0129085
-0.0124183
-0.0117791
-0.0110276
-0.0101848
-0.00922009
-0.00817449
-0.00713614
-0.00589183
-0.00480834
-0.00367148
-0.00249702
-0.00148749
-0.000535772
0.000502142
0.00143362
0.00214251
0.0030058
0.00412552
0.000568762
-0.00915157
-0.0151838
-0.0126146
-0.0108299
-0.00969327
-0.00754369
-0.00541879
-0.00399272
-0.00234156
-0.000307392
0.00114681
0.00283213
0.00476973
0.00626687
0.00842417
0.0140517
0.022629
0.0258398
0.0242141
0.022268
0.0198609
0.0174041
0.0151132
0.0127635
0.0105917
0.00874325
0.00706637
0.00560908
0.00445626
0.00352917
0.00280253
0.00229807
0.00196908
0.00177262
0.00169286
0.0016904
0.0017169
0.00174281
0.00173377
0.00165423
0.00148151
0.00120161
0.000803404
0.000290832
-0.000319821
-0.00100248
-0.00172149
-0.00243337
-0.00309765
-0.00368026
-0.00415943
-0.00452902
-0.00479984
-0.00499443
-0.00514394
-0.00528041
-0.00543151
-0.00561655
-0.00584729
-0.00612825
-0.00645996
-0.00684007
-0.00726488
-0.00772873
-0.00822453
-0.00874316
-0.00927502
-0.00981086
-0.0103427
-0.0108636
-0.0113681
-0.0118499
-0.0122999
-0.012706
-0.0130538
-0.0133251
-0.0134985
-0.0135557
-0.0134847
-0.013274
-0.0129121
-0.0124057
-0.0117733
-0.0110096
-0.0101182
-0.00915945
-0.0081453
-0.0070302
-0.00589183
-0.00480834
-0.00367148
-0.00249702
-0.00148749
-0.000535772
0.000502142
0.00143362
0.00214251
0.0030058
0.00412552
0.000568762
-0.00915157
-0.0151838
-0.0126146
-0.0108299
-0.00969327
-0.00754369
-0.00541879
-0.00399272
-0.00234156
-0.000307392
0.00114681
0.00283213
0.00476973
0.00626687
0.00842417
0.0140517
0.022629
0.0258398
0.0242141
0.022268
0.0198609
0.0174041
0.0151132
0.0127635
0.0105917
0.00874325
0.00706637
0.00560908
0.00445626
0.00352917
0.00280253
0.00229807
0.00196908
0.00177262
0.00169286
0.0016904
0.0017169
0.00174281
0.00173377
0.00165423
0.00148151
0.00120161
0.000803404
0.000290832
-0.000319821
-0.00100248
-0.00172149
-0.00243337
-0.00309765
-0.00368026
-0.00415943
-0.00452902
-0.00479984
-0.00499443
-0.00514394
-0.00528041
-0.00543151
-0.00561655
-0.00584729
-0.00612825
-0.00645996
-0.00684007
-0.00726488
-0.00772873
-0.00822453
-0.00874316
-0.00927502
-0.00981086
-0.0103427
-0.0108636
-0.0113681
-0.0118499
-0.0122999
-0.012706
-0.0130538
-0.0133251
-0.0134985
-0.0135557
-0.0134847
-0.013274
-0.0129121
-0.0124057
-0.0117733
-0.0110096
-0.0101182
-0.00915945
-0.0081453
-0.0070302
-0.00604458
-0.00485822
-0.0037508
-0.0027362
-0.00162897
-0.000550694
0.000288691
0.00111382
0.00202832
0.00280363
0.00345412
0.0013747
-0.0078071
-0.0137424
-0.0130106
-0.0111332
-0.00893905
-0.00739704
-0.00600968
-0.00387046
-0.00192731
-0.00069538
0.000977859
0.00272731
0.00410671
0.00644871
0.00771557
0.0134553
0.0217258
0.0240533
0.0226597
0.02106
0.0192469
0.016897
0.0144431
0.012333
0.0103491
0.00842008
0.00679838
0.00546565
0.00431271
0.00340459
0.00274957
0.00227284
0.0019604
0.00180449
0.00174906
0.00175668
0.00180033
0.00183754
0.00182887
0.00175174
0.00158028
0.00129631
0.000894399
0.000379383
-0.000236401
-0.00092431
-0.00164801
-0.00236593
-0.00303723
-0.00362613
-0.0041119
-0.00448756
-0.00476284
-0.0049599
-0.00511005
-0.00524449
-0.00539158
-0.00557098
-0.0057953
-0.00606968
-0.00639581
-0.0067717
-0.00719432
-0.00765786
-0.00815503
-0.00867615
-0.0092112
-0.00974988
-0.0102842
-0.0108077
-0.0113143
-0.0117974
-0.0122497
-0.0126597
-0.0130104
-0.0132839
-0.0134631
-0.0135289
-0.0134614
-0.0132537
-0.0129085
-0.0124183
-0.0117791
-0.0110276
-0.0101848
-0.00922009
-0.00817449
-0.00713614
-0.00617992
-0.00504575
-0.00395325
-0.0029241
-0.00184409
-0.000829131
-6.91036e-06
0.0008396
0.00181834
0.00242309
0.00249712
0.00278496
-0.00513289
-0.0126565
-0.0126209
-0.0112984
-0.00886393
-0.00736862
-0.00582762
-0.00370843
-0.00213469
-0.000893363
0.000868928
0.00235844
0.00365809
0.0059819
0.00732151
0.0137909
0.0198287
0.0202223
0.0206701
0.0194842
0.0175797
0.0156192
0.0135599
0.0115503
0.00963809
0.00786987
0.00636774
0.00509356
0.00402101
0.00320787
0.00261936
0.00220454
0.00196131
0.0018617
0.00184823
0.00189453
0.00196666
0.00202031
0.00202143
0.00194947
0.00177645
0.00148814
0.00108039
0.000558177
-6.65928e-05
-0.000763727
-0.00149826
-0.00222816
-0.00291291
-0.00351557
-0.00401547
-0.00440354
-0.004689
-0.00489219
-0.00504425
-0.00517535
-0.00531493
-0.00548297
-0.00569419
-0.00595484
-0.00626897
-0.00663539
-0.00705245
-0.00751396
-0.00801258
-0.00853703
-0.00907654
-0.00961943
-0.0101573
-0.010683
-0.0111917
-0.011677
-0.0121317
-0.0125446
-0.0129006
-0.0131807
-0.0133667
-0.0134412
-0.0133869
-0.0131925
-0.0128589
-0.0123881
-0.0117753
-0.0110409
-0.0102166
-0.00929091
-0.00827728
-0.00724571
-0.00624831
-0.00524528
-0.00417045
-0.00305243
-0.00210187
-0.00121173
-0.000187872
0.000633799
0.0011803
0.00191854
0.0027139
0.00251999
-0.0023506
-0.0100341
-0.0122765
-0.0106709
-0.0091226
-0.00736875
-0.00511777
-0.00389853
-0.0027225
-0.000442696
0.000911837
0.00166717
0.00335786
0.00465244
0.00764554
0.0137365
0.0162863
0.0164504
0.0179387
0.0172011
0.0154679
0.0139857
0.0123449
0.0103932
0.00862234
0.00713488
0.00573775
0.00452571
0.00361758
0.00292767