# vtk DataFile Version 3.0
fluid_state
ASCII
DATASET RECTILINEAR_GRID
DIMENSIONS 100 40 1
X_COORDINATES 100 float
0.5 1.5 2.5 3.5 4.5 5.5 6.5 7.5 8.5 9.5 10.5 11.5 12.5 13.5 14.5 15.5 16.5 17.5 18.5 19.5 20.5 21.5 22.5 23.5 24.5 25.5 26.5 27.5 28.5 29.5 30.5 31.5 32.5 33.5 34.5 35.5 36.5 37.5 38.5 39.5 40.5 41.5 42.5 43.5 44.5 45.5 46.5 47.5 48.5 49.5 50.5 51.5 52.5 53.5 54.5 55.5 56.5 57.5 58.5 59.5 60.5 61.5 62.5 63.5 64.5 65.5 66.5 67.5 68.5 69.5 70.5 71.5 72.5 73.5 74.5 75.5 76.5 77.5 78.5 79.5 80.5 81.5 82.5 83.5 84.5 85.5 86.5 87.5 88.5 89.5 90.5 91.5 92.5 93.5 94.5 95.5 96.5 97.5 98.5 99.5 
Y_COORDINATES 40 float
0.5 1.5 2.5 3.5 4.5 5.5 6.5 7.5 8.5 9.5 10.5 11.5 12.5 13.5 14.5 15.5 16.5 17.5 18.5 19.5 20.5 21.5 22.5 23.5 24.5 25.5 26.5 27.5 28.5 29.5 30.5 31.5 32.5 33.5 34.5 35.5 36.5 37.5 38.5 39.5 
Z_COORDINATES 1 float
0
POINT_DATA 4000
SCALARS density_difference float 1
LOOKUP_TABLE default
0.000748191
0.000761736
0.000773765
0.000783792
0.000788482
0.0007855
0.000775167
0.000762715
0.000740826
0.000698809
0.000654181
0.000605164
0.000527766
0.000442401
0.000357553
0.000249707
0.000136169
2.57985e-05
-9.6288e-05
-0.00021016
-0.000311866
-0.000420501
-0.000508408
-0.00057494
-0.000644977
-0.000695444
-0.000723211
-0.000753104
-0.000770032
-0.000769501
-0.000769615
-0.000765922
-0.000751673
-0.0007337
-0.000717283
-0.0006993
-0.000675903
-0.000651953
-0.000631337
-0.000609515
-0.000584703
-0.000561719
-0.000541066
-0.000519111
-0.000496378
-0.000475697
-0.000455965
-0.000435392
-0.000415106
-0.00039621
-0.000377445
-0.000358306
-0.000339668
-0.000321682
-0.000303473
-0.000285143
-0.000267117
-0.000249202
-0.000230951
-0.000212622
-0.00019429
-0.000175763
-0.000156868
-0.000137809
-0.000118498
-9.88577e-05
-7.88191e-05
-5.84955e-05
-3.77858e-05
-1.67053e-05
4.82305e-06
2.67163e-05
4.90191e-05
7.17076e-05
9.48978e-05
0.000118438
0.000142335
0.000166661
0.000191496
0.000216526
0.000241865
0.00026773
0.000293942
0.000320063
0.000346594
0.000373708
0.000400656
0.000427264
0.000454663
0.000482296
0.000508816
0.000535231
0.000562848
0.000589299
0.00061374
0.000639134
0.000664951
0.000687046
0.000707476
0.000729281
0.000739075
0.000752493
0.000764149
0.000772149
0.000774414
0.000767313
0.000758176
0.000747223
0.000714622
0.000670225
0.000636756
0.000579103
0.000491617
0.000417258
0.00033731
0.000223024
0.000108562
9.69657e-06
-0.000103029
-0.000223314
-0.000318985
-0.000412326
-0.00050361
-0.000565252
-0.000624401
-0.000683012
-0.000705644
-0.00072279
-0.000750779
-0.000755135
-0.000743632
-0.000740926
-0.000736578
-0.00071907
-0.000697043
-0.00068174
-0.000665315
-0.000641095
-0.000617247
-0.00059876
-0.000578062
-0.000553996
-0.000532196
-0.000513116
-0.000492112
-0.00047047
-0.000450769
-0.000432097
-0.000412232
-0.000392805
-0.00037447
-0.000356367
-0.000337616
-0.00031948
-0.000301687
-0.000283817
-0.000265562
-0.000247724
-0.000229726
-0.000211559
-0.000193052
-0.000174687
-0.000155881
-0.000136881
-0.000117479
-9.79954e-05
-7.79413e-05
-5.76819e-05
-3.6936e-05
-1.59677e-05
5.60961e-06
2.7386e-05
4.97192e-05
7.23439e-05
9.55405e-05
0.000118908
0.000142893
0.00016716
0.000191875
0.00021674
0.000242278
0.000267951
0.000293872
0.000319998
0.000346784
0.000373323
0.00039993
0.000426926
0.000454288
0.000480732
0.000507309
0.000534444
0.000560992
0.000585863
0.000611363
0.000636912
0.000660058
0.000681262
0.000703276
0.000723197
0.000732996
0.000749196
0.000758921
0.00076179
0.000763662
0.00076185
0.000750558
0.00072595
0.000698215
0.000668966
0.000614343
0.00054316
0.000485536
0.000403241
0.000292786
0.000199822
9.74398e-05
-2.63368e-05
-0.000131449
-0.000236721
-0.000346322
-0.000426198
-0.000505873
-0.000585347
-0.000627617
-0.000665485
-0.000708641
-0.000724151
-0.000728447
-0.000738757
-0.000739001
-0.000727801
-0.000714592
-0.000704743
-0.000689513
-0.000667584
-0.000647931
-0.000631573
-0.000610143
-0.000586909
-0.000567045
-0.000548131
-0.000526083
-0.00050492
-0.000485835
-0.00046664
-0.000446083
-0.000427015
-0.000408705
-0.000390138
-0.000371155
-0.000353361
-0.000335501
-0.000317533
-0.00029943
-0.000282006
-0.000264121
-0.000246256
-0.000228178
-0.000210362
-0.000191937
-0.000173553
-0.000154761
-0.000135985
-0.000116549
-9.70944e-05
-7.70727e-05
-5.69536e-05
-3.61408e-05
-1.52391e-05
6.30319e-06
2.79873e-05
5.03968e-05
7.29128e-05
9.60646e-05
0.00011939
0.000143443
0.000167521
0.000192202
0.000217108
0.000242631
0.000267991
0.00029399
0.000320233
0.000346744
0.000372889
0.000399882
0.000426877
0.000453449
0.000479731
0.000507149
0.000533576
0.000558766
0.000584413
0.000610824
0.000634051
0.000656011
0.00067947
0.000701108
0.000717006
0.000733543
0.000745486
0.000754567
0.000760952
0.000761344
0.000756853
0.000745214
0.000719837
0.00069472
0.000660917
0.00059687
0.000533119
0.00047415
0.000374852
0.000265467
0.000171826
6.31231e-05
-6.7119e-05
-0.000181427
-0.000277243
-0.000385542
-0.000477369
-0.000542288
-0.000613678
-0.000661652
-0.00068223
-0.000717659
-0.000740277
-0.000731377
-0.000731313
-0.000735314
-0.000724884
-0.000705284
-0.000690752
-0.000678886
-0.000659954
-0.000636276
-0.000618241
-0.000600849
-0.0005792
-0.000556945
-0.000538598
-0.000519408
-0.000498608
-0.000478511
-0.00046057
-0.00044155
-0.000422361
-0.000403874
-0.000386445
-0.000368081
-0.000350127
-0.000332468
-0.000315256
-0.00029729
-0.00027983
-0.000262219
-0.000244757
-0.000226643
-0.000208904
-0.000190676
-0.000172474
-0.000153631
-0.000134975
-0.00011563
-9.62668e-05
-7.62206e-05
-5.62048e-05
-3.54141e-05
-1.45958e-05
6.96125e-06
2.85834e-05
5.09779e-05
7.33889e-05
9.65924e-05
0.000119878
0.000143853
0.000167839
0.000192656
0.000217453
0.000242799
0.000268201
0.000294394
0.000320287
0.000346618
0.000373114
0.000400123
0.000426371
0.000453136
0.000480093
0.000506792
0.000532284
0.000558673
0.000584694
0.000609052
0.000632253
0.000656612
0.000678548
0.000697395
0.000715817
0.000735288
0.000744913
0.000756864
0.000766014
0.000764226
0.000755064
0.000745386
0.000729302
0.000695257
0.00064214
0.0005974
0.000542089
0.000435713
0.000338441
0.00026197
0.00012432
-1.24551e-05
-0.000112778
-0.000241215
-0.000364378
-0.000451432
-0.000553817
-0.000622512
-0.000657431
-0.000715691
-0.000750424
-0.000741691
-0.000751533
-0.00076294
-0.00075111
-0.000730569
-0.000719658
-0.000710802
-0.000688934
-0.000663871
-0.000649606
-0.000632728
-0.000608403
-0.000586655
-0.000570539
-0.000550537
-0.000528553
-0.000509397
-0.000492253
-0.000472343
-0.000452976
-0.000435197
-0.000417887
-0.000399044
-0.000381408
-0.000364193
-0.00034702
-0.000329055
-0.000312127
-0.000294881
-0.000277676
-0.000259934
-0.000242842
-0.000225071
-0.000207402
-0.000189168
-0.000171258
-0.000152529
-0.000133911
-0.000114609
-9.54355e-05
-7.53945e-05
-5.54293e-05
-3.46868e-05
-1.39778e-05
7.61865e-06
2.91638e-05
5.15202e-05
7.38884e-05
9.71387e-05
0.000120305
0.000144275
0.000168288
0.000193107
0.000217732
0.000243172
0.000268653
0.000294711
0.000320436
0.000347072
0.000373585
0.000400215
0.000426514
0.000453879
0.000480485
0.000506598
0.000532808
0.000559912
0.000584726
0.000608814
0.000633923
0.000658289
0.000677974
0.000698085
0.000719326
0.000737492
0.000754766
0.000766049
0.00076814
0.000771932
0.000769459
0.000753024
0.000732834
0.000701376
0.00064975
0.000599535
0.000524258
0.000417763
0.000325382
0.000211709
6.3359e-05
-7.2622e-05
-0.000199681
-0.000332632
-0.000472981
-0.000566248
-0.000648289
-0.000729052
-0.000764599
-0.000786175
-0.000819669
-0.000810244
-0.0007934
-0.000792833
-0.000776816
-0.000751159
-0.000727969
-0.000708506
-0.00068997
-0.000664395
-0.000640501
-0.000621541
-0.000601986
-0.000578755
-0.000558437
-0.000539989
-0.00052089
-0.000500419
-0.000482351
-0.000464528
-0.000446433
-0.0004279
-0.000411086
-0.000393752
-0.000376505
-0.000359086
-0.000342734
-0.000325559
-0.000308716
-0.000291593
-0.000275046
-0.000257614
-0.00024058
-0.000223022
-0.00020575
-0.000187604
-0.000169787
-0.000151225
-0.000132815
-0.00011353
-9.44551e-05
-7.45043e-05
-5.46565e-05
-3.39103e-05
-1.32733e-05
8.27963e-06
2.9737e-05
5.21292e-05
7.44552e-05
9.76552e-05
0.000120763
0.000144836
0.000168786
0.000193514
0.000218189
0.000243799
0.000269085
0.000295077
0.000321104
0.000347836
0.000373915
0.000400796
0.000427719
0.000454722
0.000480809
0.000508066
0.000534858
0.000560625
0.000585752
0.000612379
0.000636716
0.00065891
0.000681789
0.000704946
0.000721972
0.000748304
0.000766555
0.000775751
0.000780556
0.000788106
0.000785823
0.000768618
0.000742915
0.00071389
0.000674146
0.000596149
0.000494714
0.000428955
0.000310563
0.000117358
3.88369e-06
-0.000123448
-0.000329968
-0.000470459
-0.000585164
-0.000719259
-0.000783818
-0.00084633
-0.000917169
-0.000896483
-0.000875393
-0.000900765
-0.000878484
-0.000828317
-0.000797412
-0.000782715
-0.000755401
-0.00071166
-0.000685553
-0.000668967
-0.000640679
-0.000610197
-0.000591594
-0.000572839
-0.000549004
-0.00052719
-0.000510812
-0.000492089
-0.000472271
-0.000454388
-0.00043856
-0.000420614
-0.000403247
-0.000386795
-0.000370975
-0.000353702
-0.000337422
-0.00032113
-0.00030503
-0.000287946
-0.000271704
-0.000254873
-0.000238174
-0.000220666
-0.00020371
-0.000185886
-0.000168214
-0.000149723
-0.00013155
-0.000112399
-9.34018e-05
-7.35221e-05
-5.38166e-05
-3.31023e-05
-1.25301e-05
8.97157e-06
3.03716e-05
5.27745e-05
7.50245e-05
9.82194e-05
0.000121345
0.000145419
0.000169286
0.000194107
0.00021885
0.000244394
0.000269657
0.000295911
0.000321969
0.000348555
0.000374851
0.000402185
0.000428943
0.000455864
0.000482701
0.000510444
0.000536728
0.000562971
0.000589637
0.000616295
0.000639967
0.000664173
0.000689114
0.000711073
0.000728448
0.000764212
0.000775594
0.000791301
0.000808326
0.000807195
0.000797779
0.000797763
0.00077602
0.000728267
0.000682875
0.000612472
0.000511849
0.000405335
0.000250155
9.57787e-05
-6.05186e-05
-0.000262004
-0.000439463
-0.000609023
-0.000741905
-0.000887593
-0.000978397
-0.000995762
-0.00102255
-0.00104564
-0.00100255
-0.000971463
-0.000936664
-0.000891565
-0.000853815
-0.000804167
-0.000766663
-0.000735592
-0.000696932
-0.000661856
-0.000637229
-0.000611045
-0.000583248
-0.000559512
-0.000540211
-0.00051882
-0.000498184
-0.000479928
-0.00046317
-0.000444704
-0.000427765
-0.000411644
-0.000395817
-0.000378911
-0.000363441
-0.000347692
-0.000332021
-0.000315655
-0.000300274
-0.000284073
-0.000268056
-0.000251392
-0.00023529
-0.000218194
-0.000201359
-0.000183755
-0.000166453
-0.000148131
-0.000130054
-0.000111074
-9.22757e-05
-7.24589e-05
-5.28269e-05
-3.22163e-05
-1.17482e-05
9.74832e-06
3.11074e-05
5.34442e-05
7.56505e-05
9.89033e-05
0.000122
0.000146016
0.000169935
0.000194884
0.000219547
0.000245079
0.000270591
0.000296976
0.000322839
0.000349659
0.000376496
0.00040374
0.000430283
0.000458131
0.000485658
0.000512733
0.00053942
0.000567842
0.000594542
0.000619912
0.00064629
0.000673789
0.000696259
0.000717974
0.000743021
0.00077813
0.000796415
0.00081684
0.00082943
0.000831972
0.000833297
0.000828997
0.000804858
0.000764099
0.000702994
0.000634054
0.000547846
0.000367706
0.000192693
0.000108107
-0.000151436
-0.000417387
-0.000528954
-0.000753217
-0.00095213
-0.00103856
-0.00116224
-0.00120332
-0.00112885
-0.00115964
-0.0011572
-0.00104847
-0.000986708
-0.000953073
-0.000909899
-0.000838613
-0.000779875
-0.000750297
-0.000712557
-0.000664445
-0.000632084
-0.00060783
-0.00057851
-0.000549332
-0.000528645
-0.000508769
-0.000487241
-0.000467363
-0.000451467
-0.000434397
-0.000417215
-0.000401123
-0.000386689
-0.000370786
-0.000355405
-0.000340285
-0.000325765
-0.000309977
-0.00029485
-0.000279331
-0.000264034
-0.000247683
-0.000231879
-0.00021529
-0.000198835
-0.000181419
-0.000164372
-0.000146351
-0.00012846
-0.000109607
-9.0983e-05
-7.13114e-05
-5.17747e-05
-3.12493e-05
-1.08645e-05
1.05775e-05
3.18736e-05
5.41811e-05
7.63894e-05
9.96176e-05
0.000122674
0.000146759
0.000170738
0.000195644
0.000220352
0.000246105
0.000271662
0.000297997
0.000324157
0.000351345
0.0003781
0.000405488
0.000432812
0.000461001
0.000488322
0.000516261
0.000544308
0.000572666
0.000599534
0.000627318
0.000655169
0.000681895
0.000706454
0.000732715
0.000757677
0.000796811
0.000826426
0.000843233
0.000850063
0.000871651
0.000883445
0.000857005
0.000835946
0.000826828
0.000753523
0.00064617
0.000554495
0.000404981
0.00021223
-1.75893e-05
-0.000247635
-0.000382201
-0.000653347
-0.000929983
-0.00114062
-0.00120749
-0.00128113
-0.00137087
-0.00135836
-0.00124313
-0.00119037
-0.00113505
-0.00109619
-0.00100884
-0.000914584
-0.000875703
-0.000824993
-0.000755102
-0.000709789
-0.000677853
-0.000637188
-0.0005972
-0.000570493
-0.000545685
-0.000518152
-0.000494344
-0.000476548
-0.00045724
-0.000438061
-0.000421655
-0.00040718
-0.00039083
-0.000375643
-0.000361461
-0.000347542
-0.000332283
-0.000318162
-0.000303777
-0.000289311
-0.00027391
-0.000259257
-0.000243743
-0.000228233
-0.000211888
-0.000195943
-0.000178952
-0.000162061
-0.000144277
-0.000126695
-0.000108041
-8.95107e-05
-7.00125e-05
-5.0635e-05
-3.01896e-05
-9.85554e-06
1.14776e-05
3.2714e-05
5.502e-05
7.72094e-05
0.000100376
0.000123468
0.000147623
0.000171587
0.000196495
0.000221387
0.000247255
0.000272773
0.000299295
0.000325865
0.000353111
0.000379872
0.000407923
0.000435868
0.000463882
0.000491642
0.000521165
0.000549701
0.000577611
0.000606426
0.000636975
0.00066419
0.000691053
0.00072119
0.000750177
0.000771688
0.000823698
0.000848834
0.000871644
0.000894884
0.000912172
0.000914945
0.000914644
0.000905959
0.000864531
0.000803469
0.000719124
0.000573582
0.000445192
0.000270084
-0.000126899
-0.000297896
-0.000350914
-0.000730593
-0.000940848
-0.00119812
-0.00147983
-0.00151508
-0.00141028
-0.00146212
-0.001339
-0.00124856
-0.00123431
-0.00114416
-0.00104687
-0.000954368
-0.00089434
-0.000840652
-0.000773277
-0.000719327
-0.000678556
-0.000636851
-0.000596168
-0.000564183
-0.00053625
-0.000509133
-0.000484023
-0.000463787
-0.000444949
-0.0004267
-0.000409444
-0.000394823
-0.000380062
-0.000365552
-0.000351279
-0.000338238
-0.00032432
-0.000310616
-0.000296628
-0.000283109
-0.000268525
-0.000254178
-0.000239181
-0.000224329
-0.000208428
-0.000192735
-0.000176165
-0.000159642
-0.000142106
-0.000124713
-0.000106328
-8.79806e-05
-6.86291e-05
-4.93601e-05
-2.90597e-05
-8.81352e-06
1.24459e-05
3.36594e-05
5.58911e-05
7.80462e-05
0.000101234
0.000124372
0.000148471
0.000172489
0.000197558
0.000222506
0.000248337
0.000274137
0.00030096
0.000327495
0.000354903
0.000382389
0.000410716
0.000438542
0.000467432
0.000496442
0.000525838
0.000554698
0.000585024
0.00061511
0.000644917
0.000674565
0.000705886
0.000735746
0.000764593
0.00079385
0.000850351
0.000874005
0.000907991
0.000942724
0.000951936
0.000959171
0.000990642
0.000978095
0.000907048
0.00087692
0.000828935
0.000639167
0.000451454
0.00031552
6.28074e-05
-0.000290359
-0.000673023
-0.00063047
-0.000769334
-0.00111012
-0.00114349
-0.00143541
-0.0015235
-0.00131686
-0.00140339
-0.00141625
-0.00132508
-0.00112006
-0.00105428
-0.00102446
-0.000912146
-0.000827801
-0.000790903
-0.000738786
-0.000674214
-0.000631385
-0.000599536
-0.000560506
-0.000524089
-0.000499915
-0.000476883
-0.000451668
-0.000430993
-0.00041571
-0.000398837
-0.000382141
-0.000368204
-0.00035577
-0.000341599
-0.000328276
-0.000315737
-0.000303217
-0.000289416
-0.000276326
-0.000262839
-0.000249095
-0.000234378
-0.000220048
-0.000204826
-0.000189436
-0.000173153
-0.000157016
-0.000139851
-0.000122616
-0.000104464
-8.63412e-05
-6.71756e-05
-4.79879e-05
-2.78467e-05
-7.6988e-06
1.3485e-05
3.46673e-05
5.68084e-05
7.8968e-05
0.000102157
0.000125298
0.000149385
0.000173522
0.00019865
0.000223633
0.000249597
0.000275666
0.000302574
0.000329242
0.000357083
0.000385003
0.000413412
0.000441707
0.000471576
0.000501105
0.000530664
0.000560897
0.000593013
0.00062345
0.000653956
0.000687036
0.000720952
0.000750422
0.000782199
0.000818927
0.000874481
0.000913205
0.000946714
0.000974476
0.00100811
0.00103641
0.00103879
0.00103324
0.00103836
0.000981584
0.000852175
0.00076221
0.000611695
0.000347022
0.000300701
-0.000175931
-0.000943838
-0.000373705
-0.000337141
-0.000894889
-0.000424179
-0.000842567
-0.00104422
-0.000847665
-0.00138782
-0.00149976
-0.00126394
-0.00118658
-0.00108824
-0.00100037
-0.000923623
-0.000857923
-0.000794394
-0.000731887
-0.000680764
-0.000636118
-0.000592164
-0.000553939
-0.000520969
-0.000490928
-0.000464554
-0.000442386
-0.000421404
-0.000402767
-0.000386755
-0.000372201
-0.000357479
-0.000344403
-0.000332015
-0.000319737
-0.000306967
-0.00029503
-0.000282605
-0.000269986
-0.000256735
-0.000243746
-0.000229837
-0.000215769
-0.000200934
-0.000186087
-0.000170234
-0.000154282
-0.000137453
-0.000120525
-0.000102606
-8.46054e-05
-6.56652e-05
-4.66264e-05
-2.66118e-05
-6.51403e-06
1.45373e-05
3.56605e-05
5.7767e-05
7.99477e-05
0.000103052
0.000126219
0.000150393
0.000174584
0.000199655
0.000224842
0.00025103
0.0002771
0.000304092
0.000331329
0.000359415
0.000387245
0.000416288
0.000445643
0.000475435
0.000505143
0.000536669
0.000568093
0.000599465
0.000631765
0.000666277
0.000699307
0.00073261
0.000768654
0.000805488
0.000838745
0.000902121
0.000948505
0.000985341
0.00101659
0.00106447
0.00110401
0.00110536
0.00111997
0.0011533
0.00108094
0.000955055
0.000920377
0.000791866
0.000484959
0.000231422
-0.000133603
-0.000487173
-0.00031563
-0.000203751
-0.000360699
-0.000393555
-0.000509847
-0.000393589
-0.000454571
-0.000929305
-0.00118432
-0.00119376
-0.00125718
-0.00111792
-0.000969429
-0.000933246
-0.000876417
-0.000787707
-0.000729136
-0.000689832
-0.000636863
-0.000583698
-0.000548824
-0.000518528
-0.000483326
-0.000453338
-0.000432981
-0.00041293
-0.000391946
-0.000375145
-0.000362144
-0.000348023
-0.00033424
-0.000322382
-0.000311355
-0.00029907
-0.000287238
-0.000275667
-0.000263884
-0.000251045
-0.00023843
-0.000225237
-0.000211661
-0.00019717
-0.000182683
-0.000167309
-0.000151626
-0.000135065
-0.000118388
-0.00010075
-8.28887e-05
-6.41408e-05
-4.52366e-05
-2.53705e-05
-5.3355e-06
1.55961e-05
3.66866e-05
5.87305e-05
8.08983e-05
0.000103964
0.000127193
0.000151359
0.000175592
0.000200745
0.000226086
0.000252308
0.000278544
0.000305808
0.000333276
0.000361487
0.000389778
0.000419351
0.00044901
0.000479229
0.000509963
0.000542318
0.000574254
0.000606806
0.00064104
0.000676859
0.000711008
0.00074687
0.000786542
0.000825784
0.000861027
0.00093256
0.000972456
0.00102298
0.00107543
0.00111281
0.0011516
0.00120619
0.00122837
0.00120089
0.00121447
0.00123268
0.00102571
0.000790479
0.000557913
7.53335e-05
-0.000167724
-0.000277109
-0.000428512
-0.000467181
-0.000281935
-0.000391646
-0.000331764
-0.000283549
-0.000323725
-0.000484118
-0.000726071
-0.00105295
-0.00113405
-0.00106492
-0.00102271
-0.000941096
-0.000848898
-0.000792186
-0.000743563
-0.000680731
-0.000628534
-0.000589373
-0.000546645
-0.000505966
-0.000476871
-0.000450457
-0.000422964
-0.000400959
-0.000384441
-0.000367323
-0.000351118
-0.00033824
-0.000326674
-0.000314074
-0.000302488
-0.000291804
-0.000280863
-0.000269056
-0.000257724
-0.000245988
-0.000233722
-0.000220689
-0.000207677
-0.000193802
-0.000179495
-0.000164404
-0.000149115
-0.000132878
-0.00011632
-9.89303e-05
-8.1285e-05
-6.27101e-05
-4.38734e-05
-2.41765e-05
-4.24035e-06
1.66117e-05
3.7694e-05
5.96294e-05
8.17818e-05
0.000104866
0.00012813
0.000152222
0.000176563
0.000201851
0.000227214
0.000253439
0.000280037
0.000307502
0.000334914
0.000363458
0.000392513
0.000422113
0.000451789
0.000483268
0.000515022
0.000546844
0.000579787
0.000615294
0.000649825
0.000684715
0.000723276
0.00076371
0.000800896
0.000841615
0.000888631
0.000957237
0.00100364
0.0010585
0.00111917
0.00116779
0.00121159
0.0012786
0.00132899
0.00132401
0.0013412
0.00136698
0.00128478
0.000991563
0.000287497
-0.000255385
-0.000282961
-0.000366674
-0.000408282
-0.000360303
-0.000314254
-0.000384588
-0.000306399
-0.000277011
-0.000296023
-0.000316275
-0.000341563
-0.00062967
-0.000998337
-0.00110205
-0.00101781
-0.000896862
-0.000844381
-0.000808039
-0.000740484
-0.000672015
-0.000627773
-0.000588482
-0.000542128
-0.00050069
-0.000470751
-0.000443762
-0.000416313
-0.0003933
-0.000375869
-0.000359433
-0.000343543
-0.000330097
-0.000318696
-0.000307021
-0.000295668
-0.00028504
-0.000274701
-0.000263602
-0.000252501
-0.000241129
-0.00022942
-0.000216849
-0.000204072
-0.000190586
-0.00017665
-0.000161856
-0.000146764
-0.000130823
-0.000114473
-9.72801e-05
-7.97665e-05
-6.13791e-05
-4.26462e-05
-2.30758e-05
-3.19578e-06
1.75519e-05
3.85915e-05
6.04699e-05
8.26408e-05
0.000105668
0.000128945
0.000153077
0.000177493
0.00020275
0.000228239
0.000254637
0.000281319
0.00030883
0.000336628
0.000365452
0.000394556
0.000424533
0.000455016
0.000486713
0.000518678
0.000551748
0.000585832
0.000621357
0.000657134
0.000694651
0.000734202
0.000775267
0.000816276
0.000860634
0.000909036
0.000976589
0.00103898
0.00109149
0.00114386
0.00121867
0.00128968
0.00133494
0.00139203
0.00147303
0.00148336
0.00143846
0.0015618
0.00117385
8.16054e-05
-0.000411058
-0.000370661
-0.000327071
-0.000298109
-0.000339097
-0.000395618
-0.000296023
-0.000285542
-0.000341396
-0.000296439
-0.000193084
-0.000188152
-0.000386771
-0.000831721
-0.00103253
-0.000954261
-0.000913445
-0.000865932
-0.000782707
-0.000721306
-0.000685952
-0.000633236
-0.000573154
-0.000535406
-0.000505006
-0.000465919
-0.000432518
-0.000411532
-0.000390519
-0.000367754
-0.000350912
-0.000338445
-0.000324508
-0.000311168
-0.000300676
-0.000290745
-0.00027958
-0.000269045
-0.000259044
-0.000248449
-0.000236949
-0.000225591
-0.000213702
-0.000201113
-0.000187755
-0.000174181
-0.000159753
-0.000144761
-0.00012901
-0.000112896
-9.58941e-05
-7.84458e-05
-6.02159e-05
-4.16067e-05
-2.21343e-05
-2.28144e-06
1.8358e-05
3.93509e-05
6.12025e-05
8.33847e-05
0.000106337
0.000129645
0.000153833
0.000178271
0.000203491
0.000229155
0.000255682
0.000282344
0.000309966
0.000338196
0.000367106
0.000396168
0.000426741
0.000457925
0.000489388
0.000521696
0.000556425
0.000591003
0.000625811
0.000663716
0.000704303
0.000742718
0.000783699
0.000831611
0.000879114
0.000922647
0.000996016
0.0010547
0.00111801
0.00118214
0.00125341
0.00133343
0.00140166
0.0014638
0.00155981
0.00161874
0.00161202
0.00167473
0.000715004
-0.000245439
-0.000271818
-0.000334217
-0.000339377
-0.000330885
-0.000338707
-0.000334609
-0.00029296
-0.000311
-0.000280103
-0.000249432
-0.000217779
-0.00021887
-0.000226709
-0.000580304
-0.000961878
-0.000939267
-0.000915741
-0.000843728
-0.000777005
-0.000730107
-0.000678515
-0.000623644
-0.000576564
-0.000534949
-0.000496108
-0.000461938
-0.000432071
-0.000405813
-0.000383437
-0.000364256
-0.000347033
-0.000332109
-0.000319163
-0.00030732
-0.000296028
-0.000285647
-0.000275571
-0.000265483
-0.000255161
-0.000244853
-0.000234032
-0.000222795
-0.000210951
-0.000198728
-0.000185721
-0.000172215
-0.000157956
-0.000143214
-0.000127642
-0.000111593
-9.47464e-05
-7.74324e-05
-5.9304e-05
-4.07363e-05
-2.13699e-05
-1.58263e-06
1.90058e-05
3.99982e-05
6.17781e-05
8.39387e-05
0.000106908
0.000130248
0.000154368
0.000178862
0.000204196
0.000229867
0.000256346
0.000283263
0.000311058
0.000339176
0.000368254
0.000397919
0.000428481
0.000459497
0.000491874
0.000524995
0.00055909
0.000594219
0.000631342
0.000669264
0.000708738
0.000750534
0.000794774
0.000840178
0.000888985
0.000941199
0.0010099
0.00106363
0.00113603
0.00121537
0.00127868
0.00134991
0.00145322
0.00155144
0.00161343
0.0016775
0.00180787
0.001533
0.00032359
-0.000344293
-0.000231363
-0.000302819
-0.000356184
-0.000346324
-0.000301369
-0.00028607
-0.000331899
-0.000316928
-0.00023679
-0.000234853
-0.000248417
-0.000190339
-0.000147543
-0.000403972
-0.000846868
-0.000960874
-0.00087558
-0.000815462
-0.000792464
-0.000738696
-0.000662676
-0.000615767
-0.00058365
-0.000534763
-0.000487317
-0.000458905
-0.000433129
-0.000402054
-0.000377753
-0.000361813
-0.000344974
-0.00032782
-0.000315172
-0.000304776
-0.000293123
-0.000282109
-0.0002727
-0.000263143
-0.000252595
-0.000242325
-0.000231998
-0.000220938
-0.000209076
-0.000197049
-0.000184323
-0.000170888
-0.000156709
-0.000142131
-0.000126706
-0.000110698
-9.39447e-05
-7.67287e-05
-5.86769e-05
-4.01338e-05
-2.08391e-05
-1.09874e-06
1.94554e-05
4.04436e-05
6.21736e-05
8.43273e-05
0.000107303
0.000130654
0.00015474
0.000179285
0.000204669
0.000230342
0.00025683
0.000283907
0.000311766
0.000339859
0.000369108
0.000399087
0.000429614
0.000460675
0.000493646
0.000527123
0.000560926
0.000596654
0.000635095
0.000672863
0.000711977
0.000756207
0.000802269
0.000845827
0.000895935
0.000954852
0.00101421
0.0010813
0.00114457
0.00121297
0.00129881
0.0013861
0.0014664
0.00155736
0.00165414
0.00178578
0.00193467
0.00139998
0.000360282
-0.000314197
-0.000359795
-0.000313664
-0.000291435
-0.000314544
-0.000332048
-0.00032322
-0.000291157
-0.000264764
-0.00028193
-0.00024842
-0.000208574
-0.000176893
-0.000131757
-0.000358302
-0.000722666
-0.000911189
-0.000883298
-0.000843276
-0.000774123
-0.000716215
-0.000677163
-0.000625623
-0.000569014
-0.000529149
-0.000496017
-0.000457927
-0.000424933
-0.000401863
-0.000380114
-0.000358192
-0.000341168
-0.000327909
-0.000314384
-0.000301733
-0.000291325
-0.000281551
-0.000271147
-0.000261191
-0.000251562
-0.000241471
-0.000230678
-0.000219788
-0.00020836
-0.000196262
-0.000183433
-0.000170209
-0.000156185
-0.000141545
-0.000126156
-0.000110276
-9.35703e-05
-7.63309e-05
-5.83341e-05
-3.98547e-05
-2.05737e-05
-8.18714e-07
1.9688e-05
4.06414e-05
6.23886e-05
8.45636e-05
0.000107477
0.000130827
0.00015499
0.000179525
0.000204815
0.000230602
0.000257216
0.000284142
0.00031197
0.000340436
0.000369668
0.000399272
0.000430218
0.000461895
0.000494193
0.000527448
0.000562809
0.000598584
0.000635212
0.00067457
0.000716482
0.000757887
0.000802322
0.000852472
0.000903568
0.000954187
0.00101421
0.0010813
0.00114457
0.00121297
0.00129881
0.0013861
0.0014664
0.00155736
0.00165414
0.00178578
0.00193467
0.00139998
0.000360282
-0.000314197
-0.000359795
-0.000313664
-0.000291435
-0.000314544
-0.000332048
-0.00032322
-0.000291157
-0.000264764
-0.00028193
-0.00024842
-0.000208574
-0.000176893
-0.000131757
-0.000358302
-0.000722666
-0.000911189
-0.000883298
-0.000843276
-0.000774123
-0.000716215
-0.000677163
-0.000625623
-0.000569014
-0.000529149
-0.000496017
-0.000457927
-0.000424933
-0.000401863
-0.000380114
-0.000358192
-0.000341168
-0.000327909
-0.000314384
-0.000301733
-0.000291325
-0.000281551
-0.000271147
-0.000261191
-0.000251562
-0.000241471
-0.000230678
-0.000219788
-0.00020836
-0.000196262
-0.000183433
-0.000170209
-0.000156185
-0.000141545
-0.000126156
-0.000110276
-9.35703e-05
-7.63309e-05
-5.83341e-05
-3.98547e-05
-2.05737e-05
-8.18714e-07
1.9688e-05
4.06414e-05
6.23886e-05
8.45636e-05
0.000107477
0.000130827
0.00015499
0.000179525
0.000204815
0.000230602
0.000257216
0.000284142
0.00031197
0.000340436
0.000369668
0.000399272
0.000430218
0.000461895
0.000494193
0.000527448
0.000562809
0.000598584
0.000635212
0.00067457
0.000716482
0.000757887
0.000802322
0.000852472
0.000903568
0.000954187
0.0010099
0.00106363
0.00113603
0.00121537
0.00127868
0.00134991
0.00145322
0.00155144
0.00161343
0.0016775
0.00180787
0.001533
0.00032359
-0.000344293
-0.000231363
-0.000302819
-0.000356184
-0.000346324
-0.000301369
-0.00028607
-0.000331899
-0.000316928
-0.00023679
-0.000234853
-0.000248417
-0.000190339
-0.000147543
-0.000403972
-0.000846868
-0.000960874
-0.00087558
-0.000815462
-0.000792464
-0.000738696
-0.000662676
-0.000615767
-0.00058365
-0.000534763
-0.000487317
-0.000458905
-0.000433129
-0.000402054
-0.000377753
-0.000361813
-0.000344974
-0.00032782
-0.000315172
-0.000304776
-0.000293123
-0.000282109
-0.0002727
-0.000263143
-0.000252595
-0.000242325
-0.000231998
-0.000220938
-0.000209076
-0.000197049
-0.000184323
-0.000170888
-0.000156709
-0.000142131
-0.000126706
-0.000110698
-9.39447e-05
-7.67287e-05
-5.86769e-05
-4.01338e-05
-2.08391e-05
-1.09874e-06
1.94554e-05
4.04436e-05
6.21736e-05
8.43273e-05