# vtk DataFile Version 3.0
fluid_state
ASCII
DATASET RECTILINEAR_GRID
DIMENSIONS 100 40 1
X_COORDINATES 100 float
0.5 1.5 2.5 3.5 4.5 5.5 6.5 7.5 8.5 9.5 10.5 11.5 12.5 13.5 14.5 15.5 16.5 17.5 18.5 19.5 20.5 21.5 22.5 23.5 24.5 25.5 26.5 27.5 28.5 29.5 30.5 31.5 32.5 33.5 34.5 35.5 36.5 37.5 38.5 39.5 40.5 41.5 42.5 43.5 44.5 45.5 46.5 47.5 48.5 49.5 50.5 51.5 52.5 53.5 54.5 55.5 56.5 57.5 58.5 59.5 60.5 61.5 62.5 63.5 64.5 65.5 66.5 67.5 68.5 69.5 70.5 71.5 72.5 73.5 74.5 75.5 76.5 77.5 78.5 79.5 80.5 81.5 82.5 83.5 84.5 85.5 86.5 87.5 88.5 89.5 90.5 91.5 92.5 93.5 94.5 95.5 96.5 97.5 98.5 99.5 
Y_COORDINATES 40 float
0.5 1.5 2.5 3.5 4.5 5.5 6.5 7.5 8.5 9.5 10.5 11.5 12.5 13.5 14.5 15.5 16.5 17.5 18.5 19.5 20.5 21.5 22.5 23.5 24.5 25.5 26.5 27.5 28.5 29.5 30.5 31.5 32.5 33.5 34.5 35.5 36.5 37.5 38.5 39.5 
Z_COORDINATES 1 float
0
POINT_DATA 4000
SCALARS density_difference float 1
LOOKUP_TABLE default
0.000725644
0.000731712
0.000736308
0.000738843
0.000736399
0.000726432
0.000708818
0.000689454
0.000660911
0.00061174
0.000560165
0.000504519
0.000419966
0.000327592
0.000236043
0.000121211
1.09367e-06
-0.000115268
-0.00024336
-0.000362276
-0.000467872
-0.000580209
-0.000670523
-0.000737951
-0.000808497
-0.000858311
-0.000884082
-0.000911428
-0.000924959
-0.0009201
-0.00091523
-0.00090604
-0.000885781
-0.000861019
-0.000837446
-0.000812199
-0.000780905
-0.000748557
-0.000719578
-0.00068916
-0.000655282
-0.000623124
-0.00059333
-0.00056203
-0.000529799
-0.000499677
-0.000470547
-0.000440549
-0.000410908
-0.00038281
-0.000354986
-0.000326934
-0.000299607
-0.000273185
-0.000246802
-0.000220588
-0.000195016
-0.000169905
-0.000144833
-0.000120077
-9.57452e-05
-7.16527e-05
-4.76502e-05
-2.39516e-05
-4.91655e-07
2.28042e-05
4.59879e-05
6.89439e-05
9.17596e-05
0.000114423
0.000137001
0.000159419
0.000181712
0.000203868
0.000226004
0.000247978
0.000269799
0.00029156
0.000313346
0.00033486
0.000356228
0.000377696
0.000399092
0.000420003
0.000440957
0.000462155
0.000482854
0.000502925
0.00052353
0.000544129
0.000563393
0.000582399
0.000602461
0.00062122
0.0006379
0.00065551
0.000673469
0.000687722
0.000700405
0.000714459
0.000716673
0.000722587
0.000726573
0.000727243
0.000722482
0.000707985
0.000691573
0.000674063
0.000634373
0.000582585
0.00054254
0.000478134
0.000383178
0.00030187
0.000215416
9.42265e-05
-2.71652e-05
-0.000131793
-0.000249941
-0.00037562
-0.000475213
-0.000571516
-0.000665409
-0.000727952
-0.00078715
-0.000845304
-0.0008659
-0.000880137
-0.000904903
-0.000905055
-0.000888473
-0.000880064
-0.000869833
-0.000845868
-0.000816483
-0.000793673
-0.000769741
-0.000737285
-0.000704788
-0.000677738
-0.00064829
-0.000615022
-0.000583965
-0.000555669
-0.00052532
-0.000494193
-0.000465103
-0.000437108
-0.000407955
-0.000379316
-0.000351971
-0.000325015
-0.000297613
-0.00027105
-0.000245133
-0.000219411
-0.000193637
-0.000168618
-0.000143835
-0.000119256
-9.47721e-05
-7.08508e-05
-4.69615e-05
-2.33261e-05
2.08652e-07
2.33463e-05
4.65318e-05
6.94272e-05
9.22696e-05
0.000114827
0.00013745
0.00015976
0.000182081
0.000204189
0.000226331
0.000248149
0.000270063
0.000291786
0.000313456
0.000334828
0.000356408
0.000377708
0.000398821
0.000419771
0.000440995
0.000461638
0.000482013
0.000502512
0.000523084
0.000542516
0.000561872
0.000581623
0.000600603
0.000617831
0.000635598
0.000653335
0.000668636
0.000682079
0.000696277
0.000708393
0.000710771
0.000719331
0.00072158
0.000717195
0.000711621
0.000702573
0.000684438
0.000652628
0.000617583
0.000581779
0.000520053
0.000441363
0.000377069
0.000287795
0.000169819
7.03119e-05
-3.85673e-05
-0.000168933
-0.000279394
-0.000389443
-0.000503592
-0.000586108
-0.000667786
-0.000748741
-0.000790687
-0.000827351
-0.00086889
-0.000881493
-0.000882054
-0.000887986
-0.000883432
-0.000866625
-0.00084702
-0.000830691
-0.000808652
-0.000778992
-0.00075145
-0.000727195
-0.000697368
-0.000665286
-0.000636633
-0.000608782
-0.000577518
-0.000547014
-0.000518663
-0.000490111
-0.000460169
-0.00043176
-0.000404242
-0.00037652
-0.000348539
-0.000321912
-0.000295458
-0.00026909
-0.000242885
-0.000217632
-0.000192267
-0.000167236
-0.000142396
-0.000118184
-9.38066e-05
-6.98736e-05
-4.60162e-05
-2.26137e-05
9.39789e-07
2.40478e-05
4.71887e-05
6.99436e-05
9.28453e-05
0.000115341
0.000137922
0.000160147
0.000182544
0.000204553
0.00022665
0.000248439
0.000270427
0.000291974
0.000313616
0.000335049
0.000356622
0.000377625
0.00039883
0.00041992
0.000440876
0.000461148
0.000481929
0.000502446
0.000522237
0.00054154
0.000561751
0.000580807
0.000598451
0.000616484
0.000635153
0.000650598
0.000664749
0.000680419
0.000694231
0.000702433
0.000711541
0.000715873
0.000717623
0.000716628
0.000709488
0.000698051
0.000679425
0.000646532
0.000614466
0.000574027
0.000502339
0.000431263
0.00036549
0.000258787
0.000141715
4.10402e-05
-7.41551e-05
-0.000211172
-0.000331657
-0.000431854
-0.000544436
-0.000639566
-0.000705936
-0.000778316
-0.000826153
-0.000844926
-0.00087841
-0.000898102
-0.000885147
-0.00088042
-0.000879344
-0.000863466
-0.000837526
-0.000815966
-0.000797316
-0.000771068
-0.000739286
-0.000713054
-0.000687519
-0.000657182
-0.000625958
-0.00059864
-0.000570416
-0.000540302
-0.00051088
-0.000483634
-0.000455325
-0.000426796
-0.000399114
-0.000372584
-0.000345272
-0.000318495
-0.000292276
-0.000266703
-0.000240666
-0.000215392
-0.000190333
-0.000165729
-0.000140875
-0.000116755
-9.25984e-05
-6.88599e-05
-4.49675e-05
-2.16928e-05
1.75343e-06
2.47655e-05
4.792e-05
7.05703e-05
9.34417e-05
0.000115856
0.000138447
0.000160615
0.000182994
0.000204905
0.000227055
0.000248816
0.000270726
0.000292194
0.00031398
0.000335318
0.000356718
0.000377783
0.000399194
0.000419946
0.000440733
0.000461384
0.000482189
0.000501971
0.000521981
0.000541986
0.000561473
0.000579618
0.000598501
0.000616912
0.000633523
0.000649001
0.000665568
0.000679683
0.000690755
0.00070155
0.000713691
0.000715863
0.000720305
0.00072205
0.000713155
0.000696847
0.000679675
0.00065676
0.000615871
0.000554877
0.000502919
0.00044094
0.00032613
0.000220953
0.000137628
-8.21434e-06
-0.000152832
-0.000259271
-0.00039422
-0.000522978
-0.000613507
-0.000719283
-0.000789769
-0.000824372
-0.000882443
-0.000915612
-0.000903712
-0.000910012
-0.000917456
-0.000900975
-0.000874674
-0.000857627
-0.000842984
-0.000814226
-0.000781549
-0.000759934
-0.000735493
-0.000702759
-0.000672499
-0.000647899
-0.000619132
-0.000588003
-0.000559754
-0.000533447
-0.000504269
-0.000475532
-0.000448505
-0.000421941
-0.000393926
-0.000367186
-0.00034108
-0.000315131
-0.000288627
-0.000263358
-0.000238087
-0.000213095
-0.000187929
-0.000163715
-0.000139238
-0.000115203
-9.1062e-05
-6.76315e-05
-4.38755e-05
-2.06466e-05
2.7411e-06
2.5555e-05
4.86912e-05
7.12886e-05
9.41014e-05
0.000116405
0.00013903
0.000161124
0.00018346
0.000205333
0.00022753
0.000249178
0.000271085
0.000292591
0.000314383
0.00033556
0.000357062
0.000378222
0.000399503
0.000420104
0.000441212
0.000461896
0.000482331
0.00050219
0.000522817
0.000542485
0.000561407
0.000580306
0.000599909
0.000617137
0.000633523
0.000650925
0.000667497
0.000679443
0.000691813
0.00070537
0.000716494
0.000726402
0.000730147
0.000724944
0.000721717
0.000711941
0.000688166
0.000661271
0.000622395
0.000562971
0.000505718
0.000422635
0.000307466
0.00020707
8.50857e-05
-7.17179e-05
-0.000216306
-0.000350736
-0.000489885
-0.000636614
-0.000733909
-0.000818199
-0.000900922
-0.000936012
-0.000955971
-0.000987644
-0.00097464
-0.000953538
-0.000948348
-0.000927145
-0.00089606
-0.00086619
-0.000840073
-0.000815077
-0.000782108
-0.0007502
-0.000723525
-0.000695916
-0.000664115
-0.000635032
-0.000607883
-0.000579781
-0.000550159
-0.000522867
-0.000495861
-0.000468449
-0.000440661
-0.000414614
-0.000388174
-0.000361854
-0.000335568
-0.000310478
-0.000284815
-0.000259656
-0.000234543
-0.000210242
-0.000185422
-0.000161289
-0.000137055
-0.000113441
-8.94146e-05
-6.60919e-05
-4.25267e-05
-1.95197e-05
3.83279e-06
2.65396e-05
4.95706e-05
7.20448e-05
9.48507e-05
0.000117082
0.000139655
0.000161662
0.00018403
0.000205867
0.000228011
0.000249607
0.000271621
0.000293075
0.000314777
0.000336019
0.000357701
0.000378677
0.0003999
0.000420827
0.000442042
0.000462304
0.000483012
0.000503528
0.000523799
0.000542967
0.000563076
0.000582585
0.000600853
0.000618443
0.000637427
0.000654065
0.000668488
0.000683722
0.00069918
0.000708518
0.000728118
0.000738948
0.000740864
0.000738548
0.000738752
0.000729377
0.000705392
0.00067219
0.000635353
0.000588988
0.000502849
0.000391802
0.000318555
0.000191444
-1.30617e-05
-0.000135103
-0.000270717
-0.000487024
-0.000634782
-0.000754634
-0.000894028
-0.000960347
-0.00102339
-0.0010945
-0.00107073
-0.00104587
-0.00106799
-0.00104117
-0.000985481
-0.000948044
-0.000927843
-0.000894694
-0.00084337
-0.000809852
-0.000786492
-0.000750404
-0.000711537
-0.000684726
-0.000657721
-0.000625047
-0.000594291
-0.000568959
-0.000541196
-0.000512089
-0.000484987
-0.000459916
-0.000432761
-0.000406147
-0.000380628
-0.000355795
-0.000329691
-0.00030469
-0.000279962
-0.000255591
-0.000230549
-0.000206581
-0.000182408
-0.00015864
-0.000134485
-0.000111212
-8.75403e-05
-6.43826e-05
-4.09113e-05
-1.81582e-05
5.0384e-06
2.76568e-05
5.06008e-05
7.29238e-05
9.56857e-05
0.000117848
0.00014036
0.000162309
0.000184684
0.000206446
0.000228583
0.000250203
0.000272218
0.000293595
0.000315397
0.000336717
0.000358338
0.000379306
0.000400806
0.000421778
0.000442857
0.000463363
0.000484544
0.000504909
0.000525124
0.000545083
0.000565696
0.000584722
0.000603525
0.000622697
0.000641723
0.000657769
0.000674296
0.000691601
0.000705905
0.00071577
0.000745082
0.000749077
0.00075767
0.000767726
0.000759294
0.000742913
0.000736033
0.000706741
0.000651527
0.000598728
0.000519272
0.000409796
0.000294122
0.000127936
-3.69116e-05
-0.000204135
-0.000416055
-0.0006027
-0.000781651
-0.000919886
-0.00107022
-0.00116337
-0.00117925
-0.00120446
-0.00122521
-0.00117703
-0.0011411
-0.00110047
-0.0010501
-0.0010064
-0.000949303
-0.000905403
-0.000867983
-0.000821478
-0.000778621
-0.000746444
-0.000712233
-0.000675848
-0.000643576
-0.00061559
-0.000585302
-0.000555539
-0.000528205
-0.000502239
-0.000474553
-0.000448329
-0.000423042
-0.000398025
-0.000372068
-0.000347606
-0.000323085
-0.000298741
-0.00027397
-0.000250358
-0.000226253
-0.000202547
-0.000178575
-0.000155441
-0.00013174
-0.000108615
-8.51937e-05
-6.24327e-05
-3.91579e-05
-1.65202e-05
6.48409e-06
2.88875e-05
5.17512e-05
7.39916e-05
9.66366e-05
0.000118687
0.000141187
0.000163093
0.000185396
0.000207114
0.000229309
0.000250906
0.000272864
0.0002943
0.000316238
0.000337487
0.000359104
0.000380338
0.000401983
0.000422772
0.000444104
0.000465181
0.000486289
0.000506459
0.000527641
0.000548331
0.000568294
0.000587766
0.000608816
0.000628067
0.000645834
0.000664679
0.000684597
0.000699468
0.000713602
0.000731305
0.000760198
0.000771442
0.000784774
0.000790339
0.000786101
0.000780605
0.000768882
0.000737814
0.000689979
0.000619599
0.000541811
0.000447758
0.000254704
6.69025e-05
-2.65361e-05
-0.000300075
-0.000579971
-0.000700164
-0.000933997
-0.00114054
-0.00122933
-0.00135519
-0.00139539
-0.00131485
-0.00134253
-0.00133569
-0.00122047
-0.00115176
-0.00111149
-0.00106334
-0.000985053
-0.000918094
-0.000882086
-0.000837471
-0.000781176
-0.000740647
-0.000708539
-0.000670771
-0.000632797
-0.000603276
-0.000574556
-0.000543866
-0.000514808
-0.000489696
-0.000463437
-0.000436952
-0.000411688
-0.000388106
-0.000363191
-0.000338837
-0.000314983
-0.000291843
-0.000267695
-0.000244371
-0.000220996
-0.000198058
-0.00017444
-0.000151639
-0.000128486
-0.000105777
-8.25747e-05
-6.0098e-05
-3.71541e-05
-1.47244e-05
8.12955e-06
3.03406e-05
5.304e-05
7.5172e-05
9.77176e-05
0.000119676
0.000142111
0.000163949
0.000186216
0.000207937
0.000230105
0.000251662
0.000273691
0.000295195
0.000317091
0.000338395
0.000360245
0.000381536
0.000403141
0.000424249
0.000445972
0.000466981
0.000488256
0.000509251
0.0005308
0.000551307
0.000572195
0.000593089
0.000614096
0.000633578
0.00065388
0.000674253
0.00069343
0.000710563
0.000729405
0.000747017
0.00078036
0.000803215
0.000813079
0.000812988
0.000828119
0.000833339
0.000799591
0.000771591
0.000755028
0.000672919
0.000556517
0.000453914
0.000291625
8.65347e-05
-0.000158661
-0.000402507
-0.000548384
-0.000833723
-0.00112055
-0.00133924
-0.00140742
-0.00147976
-0.00156882
-0.00155096
-0.00142808
-0.00136901
-0.0013072
-0.00126378
-0.00116839
-0.00106574
-0.00102182
-0.000964418
-0.000886345
-0.000833684
-0.000794545
-0.000745739
-0.00069729
-0.000662122
-0.000628729
-0.000592197
-0.000559334
-0.000532411
-0.000503936
-0.000475432
-0.000449796
-0.000426071
-0.000400552
-0.000376193
-0.000353036
-0.000330202
-0.000306233
-0.000283519
-0.000260832
-0.000238223
-0.000215
-0.000192749
-0.000170022
-0.000147558
-0.000124684
-0.000102523
-7.97855e-05
-5.74939e-05
-3.48161e-05
-1.27239e-05
9.90645e-06
3.20043e-05
5.45113e-05
7.64675e-05
9.89187e-05
0.000120817
0.000143133
0.000164904
0.000187165
0.000208865
0.000230968
0.000252563
0.000274666
0.00029616
0.000318063
0.000339563
0.00036154
0.000382803
0.00040461
0.000426152
0.000447952
0.000468988
0.00049096
0.000512614
0.000534018
0.000555004
0.000577537
0.000598977
0.000619586
0.000641096
0.000664266
0.000684082
0.000703486
0.000726354
0.00074808
0.000762335
0.000809062
0.00082739
0.000843633
0.000860605
0.000871307
0.000867458
0.000860972
0.000845314
0.00079545
0.000726866
0.000632766
0.000473132
0.000333718
0.000145162
-0.00027486
-0.000459153
-0.000519477
-0.000915062
-0.00113841
-0.0014044
-0.00169164
-0.0017222
-0.00160695
-0.00165676
-0.00152652
-0.0014288
-0.00140645
-0.00130934
-0.00120686
-0.00110577
-0.00103863
-0.000979311
-0.000904635
-0.000842859
-0.000794669
-0.00074506
-0.000695986
-0.0006554
-0.000618778
-0.000582637
-0.000548399
-0.000518943
-0.000490885
-0.000463284
-0.000436746
-0.000412847
-0.000388924
-0.000365255
-0.000342007
-0.000320077
-0.00029749
-0.00027523
-0.000252972
-0.000231358
-0.000209001
-0.000187098
-0.000164928
-0.000143168
-0.00012078
-9.89072e-05
-7.66261e-05
-5.47385e-05
-3.23379e-05
-1.04613e-05
1.18742e-05
3.37659e-05
5.61066e-05
7.79372e-05
0.000100229
0.000122026
0.000144257
0.000165998
0.000188178
0.000209838
0.000231961
0.000253603
0.00027565
0.000297199
0.000319273
0.000340836
0.000362782
0.000384342
0.000406471
0.000427991
0.000449971
0.000471769
0.000494046
0.0005156
0.000537929
0.000560232
0.000582669
0.000604479
0.00062762
0.000650484
0.000672946
0.000695335
0.0007194
0.000742046
0.000763726
0.000786085
0.00083764
0.000854711
0.000882476
0.000911345
0.000914212
0.000915203
0.000941079
0.000921827
0.000842567
0.000804397
0.000746196
0.000544071
0.000341799
0.000188072
-8.15298e-05
-0.00045401
-0.000853578
-0.000813201
-0.000945655
-0.00128556
-0.00131844
-0.0016238
-0.00172232
-0.0015075
-0.00158975
-0.00159754
-0.00150003
-0.00128163
-0.00120992
-0.00117673
-0.00105619
-0.000964296
-0.000921444
-0.000862327
-0.000789823
-0.000738998
-0.00069911
-0.000651446
-0.000606093
-0.000572911
-0.000540787
-0.000506206
-0.000476184
-0.000451568
-0.000425396
-0.00039934
-0.000376214
-0.00035466
-0.000331517
-0.000309299
-0.000288121
-0.000267096
-0.000245051
-0.000223899
-0.000202686
-0.000181436
-0.00015958
-0.000138383
-0.000116717
-9.51875e-05
-7.32244e-05
-5.17587e-05
-2.97601e-05
-8.07088e-06
1.40096e-05
3.56513e-05
5.77866e-05
7.95181e-05
0.000101636
0.00012332
0.000145467
0.000167167
0.000189251
0.00021091
0.000233034
0.000254677
0.000276713
0.000298387
0.000320526
0.000342131
0.000364221
0.000386066
0.000408295
0.000429965
0.000452405
0.000474665
0.000497053
0.000519114
0.00054247
0.000565339
0.000587994
0.000611249
0.000636261
0.000659563
0.000682828
0.000708773
0.00073558
0.000757989
0.000782775
0.000812837
0.00086367
0.000896452
0.000923961
0.000945786
0.000974065
0.000997167
0.000993227
0.000981359
0.000980901
0.000915007
0.000773563
0.000673576
0.00050625
0.000222615
0.000166215
-0.000324651
-0.00110158
-0.000497468
-0.000443324
-0.00100938
-0.000527411
-0.000960583
-0.00118256
-0.000998311
-0.00156037
-0.00167635
-0.00143283
-0.0013499
-0.00124217
-0.00114886
-0.00106645
-0.000994033
-0.000924089
-0.000854499
-0.000795923
-0.000743564
-0.000691416
-0.000644519
-0.000602702
-0.000563581
-0.000527973
-0.000496429
-0.000466062
-0.00043798
-0.000412606
-0.000388705
-0.000364755
-0.000342517
-0.000321164
-0.000300021
-0.00027861
-0.000258185
-0.000237554
-0.000216912
-0.000195958
-0.000175504
-0.000154496
-0.000133601
-0.000112351
-9.14046e-05
-6.99049e-05
-4.86555e-05
-2.7019e-05
-5.66675e-06
1.61574e-05
3.76534e-05
5.95458e-05
8.11074e-05
0.000103085
0.000124705
0.000146709
0.000168339
0.000190382
0.000212057
0.000234093
0.000255757
0.000277885
0.000299614
0.0003217
0.000343515
0.000365844
0.000387697
0.000410021
0.000432285
0.000454997
0.000477179
0.000500237
0.000523411
0.000546724
0.000569799
0.000594511
0.000619041
0.000643343
0.0006686
0.000696053
0.000722041
0.000748296
0.000777551
0.000807682
0.000834309
0.000893388
0.000934133
0.000965416
0.000991229
0.00103426
0.00106912
0.00106484
0.00107426
0.00110256
0.00102132
0.000884509
0.000837892
0.000694793
0.000373337
0.0001147
-0.000239138
-0.000578837
-0.000388603
-0.000272425
-0.000430574
-0.000463841
-0.000585555
-0.000469971
-0.000546171
-0.00105232
-0.0013358
-0.0013526
-0.00141817
-0.00127236
-0.00111461
-0.00107394
-0.00101161
-0.000916162
-0.000850942
-0.000804745
-0.000743976
-0.000682473
-0.000639131
-0.000600103
-0.000555679
-0.00051633
-0.000486615
-0.00045716
-0.000426631
-0.000400388
-0.000378037
-0.000354668
-0.000331683
-0.000310841
-0.00029097
-0.00027005
-0.000249738
-0.000229979
-0.000210211
-0.000189692
-0.000169641
-0.000149382
-0.000129017
-0.000108137
-8.75854e-05
-6.65932e-05
-4.56446e-05
-2.42989e-05
-3.22636e-06
1.82954e-05
3.96294e-05
6.13139e-05
8.27209e-05
0.000104538
0.00012608
0.000147957
0.000169542
0.000191519
0.000213173
0.000235169
0.000256892
0.000279015
0.000300786
0.000322961
0.000344936
0.000367308
0.000389338
0.000411954
0.000434464
0.000457321
0.000479993
0.000503615
0.000527121
0.000550907
0.000575068
0.000600661
0.000625765
0.000651344
0.000678631
0.000707483
0.000734733
0.000763721
0.000796752
0.0008295
0.000858402
0.000925975
0.000960262
0.00100577
0.00105375
0.00108639
0.0011207
0.00117187
0.00118982
0.00115535
0.00116339
0.00117622
0.000952006
0.000699572
0.000464921
-8.7863e-06
-0.000237872
-0.000343402
-0.0005025
-0.000542012
-0.000350672
-0.000463524
-0.000404143
-0.000355266
-0.000393526
-0.000564516
-0.00083241
-0.00119375
-0.00128761
-0.00121419
-0.00116632
-0.00108031
-0.000982451
-0.000919443
-0.000864802
-0.000795081
-0.000735167
-0.000688017
-0.000636821
-0.000587199
-0.000548973
-0.000513303
-0.000476297
-0.000444752
-0.000418741
-0.000392163
-0.000366493
-0.000344325
-0.00032359
-0.000301976
-0.00028151
-0.000262201
-0.000242809
-0.00022281
-0.000203504
-0.000184117
-0.000164446
-0.00014436
-0.000124589
-0.000104354
-8.40099e-05
-6.33199e-05
-4.27952e-05
-2.17949e-05
-8.64996e-07
2.03927e-05
4.1487e-05
6.29841e-05
8.43065e-05
0.000105944
0.000127371
0.000149161
0.000170727
0.000192591
0.00021422
0.000236234
0.00025799
0.000280038
0.000301915
0.000324234
0.000346233
0.000368614
0.000391017
0.000413853
0.000436314
0.000459522
0.000482992
0.00050667
0.000530208
0.000555305
0.000580554
0.000605643
0.000631802
0.000660464
0.000688139
0.000716099
0.000747921
0.000781724
0.00081235
0.000846695
0.000887812
0.00095252
0.000993781
0.00104392
0.00110054
0.00114529
0.00118538
0.00124948
0.0012967
0.00128706
0.00130037
0.00131951
0.00122588
0.000924007
0.000216249
-0.000325663
-0.000350583
-0.000436191
-0.000479275
-0.000431197
-0.000385853
-0.000458408
-0.000377132
-0.000345959
-0.000365782
-0.00038881
-0.000418517
-0.000734415
-0.00113532
-0.00124811
-0.00115959
-0.00103227
-0.000975927
-0.000935032
-0.000861042
-0.00078542
-0.000733999
-0.000686978
-0.000632062
-0.00058168
-0.000542666
-0.000506397
-0.000469406
-0.000436818
-0.000409846
-0.000383913
-0.000358539
-0.00033576
-0.000315162
-0.000294463
-0.000274225
-0.000254957
-0.000236174
-0.000216891
-0.00019783
-0.000178814
-0.000159724
-0.000140116
-0.000120602
-0.000100774
-8.08266e-05
-6.04511e-05
-4.01465e-05
-1.94586e-05
1.24072e-06
2.22883e-05
4.32318e-05
6.45302e-05
8.57319e-05
0.000107235
0.000128592
0.000150271
0.000171784
0.000193587
0.000215228
0.000237185
0.000258947
0.000281039
0.000302991
0.000325283
0.00034741
0.000369977
0.000392469
0.000415361
0.000438224
0.000461737
0.000485267
0.000509348
0.000533735
0.000559083
0.000584566
0.000610976
0.000638347
0.000667066
0.00069607
0.000726809
0.000759709
0.000794233
0.000828919
0.000867133
0.000909764
0.000973398
0.00103126
0.00107939
0.00112776
0.00119956
0.00126816
0.00131063
0.00136544
0.00144514
0.00145136
0.00139866
0.00152296
0.00113454
2.39374e-05
-0.000478988
-0.000437398
-0.000395587
-0.000367276
-0.000410125
-0.000468125
-0.000366231
-0.000356112
-0.000413632
-0.000366924
-0.000259487
-0.000256503
-0.000467841
-0.000945638
-0.00117114
-0.00109305
-0.00104787
-0.00099617
-0.000908004
-0.000840725
-0.000799168
-0.000739319
-0.000671112
-0.000624996
-0.000586018
-0.000537741
-0.000494859
-0.000464443
-0.000433931
-0.000401495
-0.000375079
-0.00035318
-0.000329894
-0.000307282
-0.000287751
-0.000268961
-0.000249134
-0.000230135
-0.000211962
-0.000193424
-0.000174276
-0.000155546
-0.000136638
-0.000117331
-9.76356e-05
-7.80712e-05
-5.80768e-05
-3.78908e-05
-1.74021e-05
3.04173e-06
2.38869e-05
4.47504e-05
6.5883e-05
8.6946e-05
0.000108344
0.000129663
0.000151229
0.000172685
0.000194459
0.000216105
0.000237986
0.000259773
0.000281924
0.000303897
0.000326153
0.000348456
0.000371163
0.000393638
0.000416648
0.000439959
0.000463576
0.000487069
0.00051177
0.000536896
0.000562033
0.000587878
0.000616013
0.000643942
0.000671966
0.000703169
0.000737125
0.000768963
0.00080345
0.000845265
0.000886886
0.000924698
0.000994239
0.00104842
0.00110783
0.00116856
0.00123708
0.0013153
0.00138186
0.00144257
0.00153834
0.00159529
0.00158493
0.0016476
0.000671256
-0.000307878
-0.000333717
-0.000399074
-0.00040808
-0.000400275
-0.000409467
-0.00040555
-0.000363197
-0.000382025
-0.000350533
-0.00031936
-0.000284559
-0.00028693
-0.000297803
-0.000680819
-0.00109508
-0.00107309
-0.00104908
-0.000972831
-0.000900994
-0.000848925
-0.000791243
-0.000729168
-0.000674312
-0.000624449
-0.000576852
-0.000533561
-0.000494366
-0.000458596
-0.000426632
-0.000397844
-0.000371055
-0.000346621
-0.000324303
-0.000303217
-0.000282859
-0.000263587
-0.000244853
-0.000226312
-0.000207803
-0.000189553
-0.000171095
-0.000152496
-0.000133634
-0.000114705
-9.53729e-05
-7.58892e-05
-5.60702e-05
-3.61484e-05
-1.58494e-05
4.51864e-06
2.52006e-05
4.59166e-05
6.69409e-05
8.79525e-05
0.000109239
0.000130483
0.000151995
0.000173443
0.000195144
0.000216761
0.000238659
0.000260477
0.000282559
0.000304586
0.000326962
0.000349274
0.000371934
0.000394669
0.000417867
0.000441067
0.000464861
0.000488982
0.000513691
0.000538648
0.000564734
0.000591444
0.000618952
0.000647453
0.000677894
0.000709169
0.000742008
0.000777351
0.000815282
0.0008546
0.00089761
0.000944459
0.00100913
0.00105837
0.00112711
0.00120369
0.00126449
0.00133385
0.00143657
0.00153518
0.00159711
0.00166006
0.00179156
0.00151085
0.000273812
-0.000407289
-0.000289504
-0.000368071
-0.000425665
-0.000415323
-0.000370094
-0.00035614
-0.000403768
-0.000387558
-0.000305317
-0.000304882
-0.000317936
-0.000255562
-0.000214476
-0.000493822
-0.00096949
-0.00109413
-0.00100622
-0.000942457
-0.000916082
-0.000857441
-0.000774741
-0.000720747
-0.000681365
-0.000624224
-0.000567809
-0.000530379
-0.000495424
-0.000454761
-0.000420795
-0.000395305
-0.000368921
-0.000342195
-0.000320153
-0.000300537
-0.000279805
-0.000259871
-0.000241804
-0.000223805
-0.000205058
-0.000186842
-0.000168885
-0.00015047
-0.000131588
-0.000112862
-9.38192e-05
-7.4414e-05
-5.46783e-05
-3.493e-05
-1.47845e-05
5.53347e-06
2.61186e-05
4.67278e-05
6.7671e-05
8.86513e-05
0.000109863
0.000131053
0.000152528
0.000173968
0.000195617
0.000217223
0.000239127
0.000260953
0.000283002
0.000305077
0.000327508
0.000349821
0.000372492
0.000395392
0.000418662
0.000441837
0.000465808
0.000490258
0.000514944
0.00053995
0.000566653
0.000593746
0.000620975
0.000650093
0.00068191
0.000713071
0.000745563
0.000783414
0.000823283
0.000860792
0.000905155
0.000958931
0.00101381
0.00107683
0.00113643
0.00120184
0.00128566
0.00137179
0.00145158
0.00154262
0.00163973
0.00177435
0.00192767
0.00138087
0.000317866
-0.000372123
-0.0004249
-0.000379208
-0.000356495
-0.000383381
-0.000402469
-0.00039353
-0.000361003
-0.000334927
-0.000352612
-0.000316645
-0.000277254
-0.000244569
-0.000194867
-0.000439666
-0.000835827
-0.00104117
-0.00101266
-0.000970774
-0.000897268
-0.000833936
-0.000789162
-0.000730858
-0.000666396
-0.000618287
-0.000576631
-0.00052944
-0.000487021
-0.000454497
-0.000423213
-0.000391619
-0.00036499
-0.000342248
-0.000319333
-0.000297394
-0.000277912
-0.000259253
-0.000240171
-0.00022175
-0.000203937
-0.00018591
-0.000167474
-0.00014923
-0.000130791
-0.000111997
-9.28479e-05
-7.36595e-05
-5.4085e-05
-3.42776e-05
-1.41681e-05
6.01597e-06
2.65499e-05
4.71798e-05
6.80665e-05
8.89782e-05
0.000110174
0.000131377
0.000152804
0.000174205
0.00019587
0.000217497
0.000239338
0.00026116
0.000283288
0.000305354
0.000327688
0.000350116
0.000372921
0.000395667
0.000418902
0.000442463
0.000466427
0.000490489
0.0005156
0.000541253
0.000567279
0.000594131
0.000622964
0.000652168
0.000682126
0.000714898
0.000750305
0.00078531
0.000823481
0.000867757
0.000913245
0.000958555
0.00101381
0.00107683
0.00113643
0.00120184
0.00128566
0.00137179
0.00145158
0.00154262
0.00163973
0.00177435
0.00192767
0.00138087
0.000317866
-0.000372123
-0.0004249
-0.000379208
-0.000356495
-0.000383381
-0.000402469
-0.00039353
-0.000361003
-0.000334927
-0.000352612
-0.000316645
-0.000277254
-0.000244569
-0.000194867
-0.000439666
-0.000835827
-0.00104117
-0.00101266
-0.000970774
-0.000897268
-0.000833936
-0.000789162
-0.000730858
-0.000666396
-0.000618287
-0.000576631
-0.00052944
-0.000487021
-0.000454497
-0.000423213
-0.000391619
-0.00036499
-0.000342248
-0.000319333
-0.000297394
-0.000277912
-0.000259253
-0.000240171
-0.00022175
-0.000203937
-0.00018591
-0.000167474
-0.00014923
-0.000130791
-0.000111997
-9.28479e-05
-7.36595e-05
-5.4085e-05
-3.42776e-05
-1.41681e-05
6.01597e-06
2.65499e-05
4.71798e-05
6.80665e-05
8.89782e-05
0.000110174
0.000131377
0.000152804
0.000174205
0.00019587
0.000217497
0.000239338
0.00026116
0.000283288
0.000305354
0.000327688
0.000350116
0.000372921
0.000395667
0.000418902
0.000442463
0.000466427
0.000490489
0.0005156
0.000541253
0.000567279
0.000594131
0.000622964
0.000652168
0.000682126
0.000714898
0.000750305
0.00078531
0.000823481
0.000867757
0.000913245
0.000958555
0.00100913
0.00105837
0.00112711
0.00120369
0.00126449
0.00133385
0.00143657
0.00153518
0.00159711
0.00166006
0.00179156
0.00151085
0.000273812
-0.000407289
-0.000289504
-0.000368071
-0.000425665
-0.000415323
-0.000370094
-0.00035614
-0.000403768
-0.000387558
-0.000305317
-0.000304882
-0.000317936
-0.000255562
-0.000214476
-0.000493822
-0.00096949
-0.00109413
-0.00100622
-0.000942457
-0.000916082
-0.000857441
-0.000774741
-0.000720747
-0.000681365
-0.000624224
-0.000567809
-0.000530379
-0.000495424
-0.000454761
-0.000420795
-0.000395305
-0.000368921
-0.000342195
-0.000320153
-0.000300537
-0.000279805
-0.000259871
-0.000241804
-0.000223805
-0.000205058
-0.000186842
-0.000168885
-0.00015047
-0.000131588
-0.000112862
-9.38192e-05
-7.4414e-05
-5.46783e-05
-3.493e-05
-1.47845e-05
5.53347e-06
2.61186e-05
4.67278e-05
6.7671e-05
8.86513e-05
0.000109863
0.000131053
0.000152528
0.000173968
0.000195617
0.000217223
0.000239127
0.000260953
0.000283002
0.000305077
0.000327508
0.000349821
0.000372492
0.000395392
0.000418662
0.000441837
0.000465808
0.000490258
0.000514944