# vtk DataFile Version 3.0
fluid_state
ASCII
DATASET RECTILINEAR_GRID
DIMENSIONS 100 40 1
X_COORDINATES 100 float
0.5 1.5 2.5 3.5 4.5 5.5 6.5 7.5 8.5 9.5 10.5 11.5 12.5 13.5 14.5 15.5 16.5 17.5 18.5 19.5 20.5 21.5 22.5 23.5 24.5 25.5 26.5 27.5 28.5 29.5 30.5 31.5 32.5 33.5 34.5 35.5 36.5 37.5 38.5 39.5 40.5 41.5 42.5 43.5 44.5 45.5 46.5 47.5 48.5 49.5 50.5 51.5 52.5 53.5 54.5 55.5 56.5 57.5 58.5 59.5 60.5 61.5 62.5 63.5 64.5 65.5 66.5 67.5 68.5 69.5 70.5 71.5 72.5 73.5 74.5 75.5 76.5 77.5 78.5 79.5 80.5 81.5 82.5 83.5 84.5 85.5 86.5 87.5 88.5 89.5 90.5 91.5 92.5 93.5 94.5 95.5 96.5 97.5 98.5 99.5 
Y_COORDINATES 40 float
0.5 1.5 2.5 3.5 4.5 5.5 6.5 7.5 8.5 9.5 10.5 11.5 12.5 13.5 14.5 15.5 16.5 17.5 18.5 19.5 20.5 21.5 22.5 23.5 24.5 25.5 26.5 27.5 28.5 29.5 30.5 31.5 32.5 33.5 34.5 35.5 36.5 37.5 38.5 39.5 
Z_COORDINATES 1 float
0
POINT_DATA 4000
SCALARS density_difference float 1
LOOKUP_TABLE default
0.000818276
0.00100651
0.00119327
0.00137992
0.00155827
0.00172836
0.0018959
0.00205715
0.00220691
0.00234534
0.00247673
0.00259968
0.00270477
0.00279659
0.00288099
0.00294858
0.0030006
0.00304047
0.00306447
0.00307757
0.00307821
0.00306025
0.00303393
0.00300047
0.00295056
0.00289003
0.00282497
0.00274847
0.00266201
0.00257028
0.00246868
0.00235913
0.00224534
0.00212182
0.00198972
0.00185452
0.00171222
0.00156087
0.00140545
0.00124589
0.00107972
0.000908915
0.000735171
0.000557888
0.000377534
0.000195203
1.13385e-05
-0.000173395
-0.000358265
-0.000542902
-0.000726535
-0.000908185
-0.00108742
-0.00126373
-0.00143608
-0.0016037
-0.00176614
-0.00192263
-0.00207222
-0.00221431
-0.00234832
-0.00247346
-0.00258901
-0.00269448
-0.00278927
-0.00287282
-0.00294463
-0.0030044
-0.0030517
-0.00308628
-0.0031079
-0.00311652
-0.003112
-0.00309443
-0.00306382
-0.00302046
-0.00296447
-0.00289626
-0.00281604
-0.00272441
-0.00262171
-0.00250851
-0.0023852
-0.00225267
-0.00211128
-0.00196162
-0.0018044
-0.00164063
-0.00147033
-0.00129427
-0.00111372
-0.000929234
-0.000740254
-0.000548536
-0.000355761
-0.000160703
3.6818e-05
0.000232752
0.000427143
0.000623489
0.000814369
0.00100252
0.00119167
0.00137433
0.00154855
0.00172055
0.00188872
0.00204626
0.00219254
0.00233183
0.00246722
0.00258574
0.00268543
0.00278426
0.00287193
0.00293334
0.00298564
0.00303239
0.0030587
0.00306802
0.00307034
0.00305864
0.00303207
0.00299692
0.00294956
0.00288978
0.00282458
0.00274913
0.00266017
0.00256778
0.00246982
0.0023574
0.00223971
0.00212013
0.00198908
0.00184932
0.0017079
0.00155984
0.00140312
0.00124241
0.0010783
0.000908603
0.000734599
0.000557854
0.000378597
0.000196912
1.36222e-05
-0.000170607
-0.000354851
-0.000538753
-0.00072176
-0.000903079
-0.00108167
-0.00125727
-0.00142911
-0.00159635
-0.00175807
-0.00191397
-0.00206308
-0.0022047
-0.00233802
-0.00246272
-0.00257777
-0.00268281
-0.00277704
-0.00286029
-0.00293167
-0.00299116
-0.00303808
-0.00307254
-0.00309387
-0.00310245
-0.00309775
-0.00308026
-0.00304957
-0.00300641
-0.00295044
-0.00288251
-0.00280243
-0.00271123
-0.00260869
-0.00249595
-0.00237303
-0.00224107
-0.00209991
-0.00195097
-0.00179439
-0.00163111
-0.00146116
-0.00128629
-0.00110645
-0.000922088
-0.000733989
-0.000544158
-0.000351443
-0.000156232
3.88536e-05
0.000232801
0.000428752
0.000624098
0.000814162
0.00100551
0.00119014
0.00136722
0.00154557
0.0017194
0.00188006
0.00203428
0.00218618
0.00232747
0.00245359
0.0025691
0.0026813
0.00277775
0.00285336
0.00292433
0.00298309
0.00302134
0.00305082
0.00306528
0.0030638
0.00305598
0.00303215
0.00299173
0.00294721
0.00289242
0.00282131
0.00274471
0.0026619
0.00256548
0.00246393
0.00235692
0.00223823
0.00211402
0.00198637
0.00184874
0.00170428
0.00155659
0.00140272
0.00124203
0.00107754
0.000909023
0.000736309
0.000560187
0.000381483
0.000200447
1.81957e-05
-0.000165175
-0.000348966
-0.000532334
-0.000714327
-0.000894998
-0.00107319
-0.00124816
-0.00141913
-0.0015859
-0.00174712
-0.00190238
-0.00205078
-0.00219201
-0.00232476
-0.00244891
-0.0025634
-0.00266809
-0.00276179
-0.00284465
-0.00291561
-0.00297485
-0.00302138
-0.00305564
-0.00307672
-0.00308522
-0.00308032
-0.00306285
-0.0030321
-0.00298905
-0.00293308
-0.00286539
-0.00278546
-0.00269453
-0.00259221
-0.00247994
-0.00235735
-0.00222579
-0.00208511
-0.00193688
-0.00178069
-0.00161792
-0.0014489
-0.00127488
-0.00109523
-0.000911799
-0.000725321
-0.000535864
-0.000343053
-0.000150165
4.29832e-05
0.000238242
0.000433395
0.000623945
0.000819997
0.00100676
0.00118773
0.00136864
0.00154638
0.0017129
0.00187393
0.00203196
0.00218079
0.00231814
0.00244331
0.0025627
0.00267636
0.00276493
0.00284169
0.00292
0.00297694
0.00301134
0.0030413
0.00306159
0.00306101
0.00304735
0.00302511
0.00298939
0.00294269
0.00288609
0.00281653
0.00273867
0.00265775
0.00256223
0.00245601
0.00235103
0.00223718
0.00210903
0.00197954
0.00184693
0.00170326
0.00155316
0.001401
0.00124278
0.00107835
0.000910198
0.000738976
0.000563907
0.000386093
0.000206023
2.46234e-05
-0.000157796
-0.000340457
-0.000523101
-0.000704376
-0.000884047
-0.00106131
-0.00123572
-0.00140591
-0.0015718
-0.00173232
-0.00188702
-0.00203464
-0.00217518
-0.00230735
-0.00243095
-0.00254477
-0.00264895
-0.00274216
-0.00282458
-0.00289505
-0.00295397
-0.00300014
-0.00303414
-0.00305495
-0.00306331
-0.00305825
-0.00304075
-0.00300995
-0.00296697
-0.00291108
-0.00284359
-0.00276381
-0.00267319
-0.00257121
-0.00245935
-0.0023371
-0.0022061
-0.00206605
-0.00191833
-0.00176269
-0.0016009
-0.00143266
-0.00125909
-0.00108044
-0.000898498
-0.000712507
-0.0005235
-0.000332785
-0.000141435
5.22826e-05
0.000246102
0.00043756
0.000628263
0.00082536
0.00100741
0.00119168
0.00137361
0.00154276
0.0017075
0.00187565
0.00203084
0.00217036
0.00230804
0.00244207
0.00256042
0.0026581
0.0027522
0.00284656
0.00290892
0.00295768
0.00300923
0.00303644
0.00304875
0.00305432
0.00303826
0.00301508
0.00298428
0.00293339
0.00287209
0.00281114
0.00273304
0.00264281
0.00255424
0.00245364
0.00234002
0.00222725
0.00210718
0.00197499
0.00183932
0.00170031
0.00155266
0.00139913
0.00124171
0.00107975
0.000912862
0.000742284
0.000568257
0.000391945
0.000213307
3.28919e-05
-0.000148655
-0.00032994
-0.000511284
-0.000691727
-0.00087051
-0.00104651
-0.00121992
-0.00138935
-0.00155433
-0.00171379
-0.00186773
-0.00201461
-0.00215431
-0.00228565
-0.00240863
-0.00252178
-0.00262529
-0.00271789
-0.00279983
-0.00286977
-0.00292825
-0.00297402
-0.00300775
-0.00302824
-0.00303643
-0.00303121
-0.00301366
-0.0029828
-0.00293992
-0.00288413
-0.00281684
-0.00273728
-0.00264704
-0.00254541
-0.00243398
-0.00231226
-0.00218194
-0.00204244
-0.00189539
-0.00174066
-0.00157977
-0.00141215
-0.00123962
-0.00106239
-0.000881262
-0.000695866
-0.000508753
-0.000319789
-0.000128403
6.41835e-05
0.000254462
0.000445223
0.000637441
0.00083012
0.00101563
0.00119841
0.00137144
0.00154221
0.00171387
0.00187302
0.00202043
0.00216898
0.00230779
0.00243312
0.00254856
0.00264975
0.0027507
0.00283655
0.00289249
0.00295129
0.00300322
0.00302823
0.00303589
0.00304057
0.00303143
0.00300586
0.00296655
0.00291918
0.00286143
0.00279597
0.00272102
0.00263
0.00253859
0.00244555
0.00233264
0.0022139
0.00209851
0.00197179
0.00183347
0.0016943
0.00155051
0.00139843
0.00124124
0.00108086
0.000915578
0.000746387
0.000573925
0.00039884
0.000221392
4.27145e-05
-0.000137388
-0.000317698
-0.000497718
-0.000676578
-0.000854288
-0.0010293
-0.00120141
-0.00136963
-0.00153373
-0.00169219
-0.00184503
-0.00199098
-0.0021299
-0.00226033
-0.00238247
-0.00249489
-0.00259774
-0.00268962
-0.00277097
-0.00284038
-0.00289839
-0.0029437
-0.00297709
-0.00299729
-0.00300525
-0.00299986
-0.00298224
-0.00295136
-0.00290856
-0.00285288
-0.00278581
-0.00270655
-0.00261666
-0.00251542
-0.00240454
-0.00228344
-0.0021537
-0.00201489
-0.00186879
-0.00171492
-0.00155477
-0.00138827
-0.00121712
-0.00104072
-0.000860494
-0.000677028
-0.00049141
-0.0003027
-0.000113054
7.64407e-05
0.000266463
0.000457595
0.000645381
0.000840192
0.00102502
0.00120089
0.00137306
0.00154953
0.00171521
0.00186464
0.00201883
0.00217244
0.00230117
0.00241886
0.00253826
0.00265419
0.00274485
0.00280583
0.00288984
0.00296027
0.00298016
0.00301194
0.00303315
0.00302779
0.0030193
0.00298939
0.00294555
0.00290415
0.00285039
0.00277049
0.00269812
0.00262429
0.00252224
0.00242085
0.00232432
0.00220869
0.0020834
0.001961
0.00183067
0.00169002
0.00154504
0.00139659
0.00124202
0.00108226
0.000918165
0.000750934
0.000580343
0.000406789
0.000230632
5.3544e-05
-0.000124733
-0.0003036
-0.000482432
-0.000659752
-0.000835899
-0.00100974
-0.0011807
-0.00134753
-0.00151042
-0.00166788
-0.00181964
-0.00196446
-0.00210243
-0.002232
-0.00235322
-0.00246478
-0.0025669
-0.00265809
-0.00273876
-0.00280758
-0.00286508
-0.00290993
-0.00294292
-0.00296281
-0.00297054
-0.00296497
-0.00294726
-0.00291638
-0.00287363
-0.00281809
-0.00275126
-0.0026723
-0.00258277
-0.00248202
-0.00237172
-0.0022512
-0.00212216
-0.00198421
-0.00183898
-0.00168594
-0.00152687
-0.00136165
-0.00119152
-0.00101615
-0.000837578
-0.000655693
-0.00047089
-0.000283651
-9.65658e-05
9.17729e-05
0.000281565
0.000469629
0.000654159
0.000852178
0.00102958
0.00120644
0.0013844
0.00155111
0.00170713
0.00187026
0.00202672
0.00215681
0.00228871
0.0024256
0.00253462
0.00263558
0.00272588
0.00280725
0.00289264
0.00293536
0.00296834
0.00300928
0.00302835
0.00301739
0.00299697
0.00296637
0.00293475
0.00288145
0.00281969
0.0027529
0.00267318
0.00259947
0.00250975
0.00240121
0.00230147
0.00219781
0.00207478
0.00194859
0.00182155
0.00168517
0.00154143
0.00139421
0.00124137
0.00108357
0.000921787
0.000756153
0.000586721
0.000415255
0.000241313
6.54887e-05
-0.000111411
-0.00028819
-0.000465337
-0.000641517
-0.000816139
-0.000988251
-0.00115796
-0.00132365
-0.00148513
-0.00164128
-0.00179203
-0.00193578
-0.0020726
-0.00220119
-0.00232155
-0.00243221
-0.00253347
-0.00262395
-0.00270394
-0.00277212
-0.00282906
-0.00287346
-0.00290604
-0.00292559
-0.00293306
-0.00292733
-0.00290952
-0.00287862
-0.00283593
-0.00278057
-0.00271395
-0.0026353
-0.0025462
-0.00244597
-0.00233619
-0.00221633
-0.00208811
-0.001951
-0.00180656
-0.00165461
-0.00149678
-0.00133253
-0.00116347
-0.000989823
-0.000812731
-0.000631605
-0.000448505
-0.000263867
-7.76188e-05
0.000110274
0.000296476
0.00048174
0.000668
0.00086162
0.00103856
0.00121704
0.00138892
0.00154971
0.0017127
0.00187635
0.00201629
0.00214751
0.00229398
0.00242113
0.0025202
0.00261667
0.00271503
0.00282563
0.00286956
0.00290116
0.00299628
0.00300986
0.00300333
0.00300742
0.00298017
0.00295339
0.00291372
0.00284834
0.00278087
0.00273902
0.0026547
0.00255206
0.00248235
0.00239564
0.00227834
0.00217081
0.00206449
0.00194085
0.00180929
0.00167673
0.00153795
0.00139178
0.00124024
0.0010849
0.000925212
0.000761539
0.000594
0.000424189
0.000252201
7.84264e-05
-9.68989e-05
-0.000272127
-0.000447364
-0.000621855
-0.000795132
-0.000965733
-0.00113381
-0.00129819
-0.00145844
-0.00161326
-0.00176272
-0.00190541
-0.00204115
-0.00216866
-0.00228804
-0.00239786
-0.00249824
-0.00258793
-0.00266722
-0.00273479
-0.00279113
-0.00283505
-0.00286719
-0.00288642
-0.0028936
-0.00288772
-0.00286979
-0.00283889
-0.00279626
-0.00274107
-0.00267467
-0.00259639
-0.00250769
-0.00240796
-0.00229877
-0.00217966
-0.00205218
-0.00191589
-0.00177245
-0.00162161
-0.00146479
-0.00130171
-0.00113412
-0.000961837
-0.000785892
-0.000606409
-0.00042527
-0.0002419
-5.68771e-05
0.000128483
0.000312533
0.000497457
0.000681764
0.000872822
0.00105251
0.00122448
0.00138895
0.00155853
0.00172329
0.00186462
0.00200643
0.00216594
0.00228948
0.00238286
0.00251844
0.00263586
0.00270418
0.00278255
0.00284696
0.00294757
0.00300403
0.0029909
0.00299809
0.00301104
0.0029783
0.00293721
0.00286111
0.00282112
0.00276334
0.00268744
0.00262524
0.00253334
0.00243879
0.00236163
0.00226414
0.00215207
0.00204262
0.00192606
0.00180001
0.00166911
0.00153138
0.0013877
0.00123978
0.00108676
0.000928076
0.000766543
0.000601984
0.000433879
0.000263117
9.16044e-05
-8.14335e-05
-0.000255322
-0.000429068
-0.000601511
-0.000773107
-0.000942485
-0.00110904
-0.00127178
-0.00143075
-0.00158441
-0.00173252
-0.00187398
-0.00200869
-0.00213518
-0.00225349
-0.0023624
-0.00246196
-0.00255086
-0.00262938
-0.00269634
-0.0027521
-0.00279552
-0.00282721
-0.00284613
-0.00285303
-0.00284697
-0.00282892
-0.00279805
-0.00275546
-0.00270044
-0.00263428
-0.00255637
-0.00246806
-0.00236886
-0.0022603
-0.0021419
-0.00201513
-0.00187978
-0.00173739
-0.00158751
-0.00143171
-0.0012701
-0.00110386
-0.000932577
-0.000758145
-0.000580787
-0.000400848
-0.00021835
-3.59868e-05
0.000146851
0.000331023
0.000514395
0.000693622
0.000886779
0.00106169
0.00123134
0.00139915
0.00156486
0.00171857
0.00186534
0.00201813
0.00215557
0.00226378
0.00239095
0.00252148
0.00260756
0.00269828
0.00276025
0.00286312
0.00297762
0.00294352
0.00304075
0.00307038
0.00301425
0.00295128
0.00287844
0.00283933
0.00281336
0.0027514
0.00261798
0.00255583
0.0025199
0.00241398
0.00231023
0.00223451
0.0021366
0.00202098
0.00190723
0.00178842
0.00165961
0.00152418
0.00138413
0.00123824
0.00108734
0.000931704
0.00077214
0.000609151
0.000443529
0.000275009
0.000104902
-6.63103e-05
-0.00023802
-0.000410149
-0.000581214
-0.000751012
-0.000918708
-0.00108395
-0.00124534
-0.00140278
-0.00155516
-0.00170213
-0.00184239
-0.0019759
-0.0021014
-0.00221874
-0.00232671
-0.00242538
-0.00251354
-0.00259132
-0.00265763
-0.0027128
-0.00275575
-0.002787
-0.00280559
-0.0028122
-0.00280599
-0.00278782
-0.00275695
-0.00271441
-0.00265959
-0.00259365
-0.00251608
-0.00242819
-0.00232956
-0.00222155
-0.00210384
-0.0019779
-0.00184346
-0.00170191
-0.00155312
-0.00139859
-0.0012381
-0.00107298
-0.000903302
-0.000730465
-0.000554217
-0.000375764
-0.000195528
-1.46978e-05
0.000167291
0.000349105
0.000529585
0.000708395
0.000900024
0.00106988
0.00124163
0.00141069
0.00156547
0.0017171
0.00187857
0.00201848
0.00212711
0.00226801
0.00241838
0.00247242
0.00255541
0.00274093
0.00281681
0.00284347
0.00284812
0.00294997
0.00276361
0.00253853
0.00256299
0.00263847
0.00281475
0.00286572
0.00276071
0.00267379
0.00261715
0.00250519
0.002433
0.0023791
0.00228964
0.00219609
0.00210237
0.00200023
0.00189187
0.00177329
0.00164695
0.00151691
0.00138065
0.00123601
0.00108719
0.000935161
0.000778024
0.000616244
0.000452722
0.000286903
0.000118469
-5.14139e-05
-0.000221109
-0.000391227
-0.00056096
-0.000729331
-0.000895288
-0.00105902
-0.00121922
-0.0013753
-0.0015263
-0.00167208
-0.00181129
-0.00194363
-0.00206809
-0.00218448
-0.00229158
-0.00238936
-0.00247677
-0.00255385
-0.00261954
-0.00267411
-0.00271661
-0.00274742
-0.0027657
-0.00277202
-0.00276567
-0.00274737
-0.00271651
-0.00267402
-0.00261939
-0.00255366
-0.00247644
-0.00238896
-0.00229085
-0.00218339
-0.0020664
-0.00194124
-0.00180762
-0.00166696
-0.00151931
-0.00136589
-0.00120642
-0.00104257
-0.000874489
-0.000702882
-0.00052771
-0.00035116
-0.000172947
7.12711e-06
0.000187843
0.000366441
0.000545272
0.000724738
0.000911911
0.00108341
0.00125136
0.00141428
0.00157325
0.00172744
0.00187245
0.00200782
0.00214418
0.00227316
0.00236196
0.00245878
0.00260787
0.00267747
0.00278836
0.00261932
0.00213994
0.00202959
0.00176828
0.00147249
0.00166614
0.00167436
0.00193235
0.00237889
0.00248721
0.00252772
0.00255511
0.002488
0.00236398
0.00231464
0.00225399
0.00215912
0.00207082
0.0019774
0.00186993
0.00175616
0.0016371
0.00150878
0.00137381
0.00123415
0.00108856
0.00093725
0.000782584
0.000624189
0.000462109
0.000297508
0.000131548
-3.62468e-05
-0.000204856
-0.000373398
-0.000541159
-0.000708111
-0.000872932
-0.00103512
-0.00119386
-0.0013488
-0.00149867
-0.00164315
-0.00178127
-0.00191264
-0.00203611
-0.0021515
-0.00225779
-0.00235477
-0.00244143
-0.0025178
-0.00258293
-0.00263694
-0.00267898
-0.00270938
-0.00272736
-0.00273342
-0.00272691
-0.0027085
-0.00267766
-0.00263522
-0.00258074
-0.00251523
-0.00243837
-0.00235123
-0.00225361
-0.00214674
-0.00203043
-0.00190589
-0.00177313
-0.00163346
-0.00148669
-0.00133416
-0.00117605
-0.00101348
-0.000846275
-0.00067597
-0.000502756
-0.000327371
-0.000149869
2.80113e-05
0.000206348
0.000384737
0.000562566
0.000738111
0.000924332
0.00109651
0.0012609
0.00141938
0.00158124
0.0017354
0.00186954
0.00200686
0.00215355
0.00225536
0.0023314
0.00249033
0.00259356
0.00254427
0.00237858
0.00187888
0.00132533
0.00110618
0.00111001
0.0010044
0.00100613
0.00105149
0.00116567
0.00147647
0.00182827
0.00222675
0.00238115
0.00237981
0.00234305
0.00226092
0.00219192
0.00211889
0.00204199
0.00195077
0.00184681
0.00173954
0.00162555
0.00149991
0.00136756
0.00123156
0.0010891
0.000939654
0.000786876
0.000631093
0.000471152
0.000307949
0.000143624
-2.2147e-05
-0.000189216
-0.000356511
-0.000522767
-0.000688136
-0.000851744
-0.00101273
-0.00117016
-0.00132386
-0.00147271
-0.0016161
-0.00175315
-0.00188354
-0.00200615
-0.00212064
-0.00222611
-0.00232234
-0.00240834
-0.00248404
-0.00254863
-0.00260212
-0.00264375
-0.00267374
-0.00269145
-0.00269725
-0.00269061
-0.00267209
-0.00264127
-0.00259885
-0.00254454
-0.00247923
-0.00240268
-0.00231588
-0.00221874
-0.00211238
-0.00199666
-0.00187279
-0.00174083
-0.00160195
-0.00145605
-0.0013045
-0.00114748
-0.000985911
-0.000819801
-0.000650813
-0.000478939
-0.000304591
-0.000128331
4.77325e-05
0.000224623
0.000402429
0.00057866
0.000751318
0.000937329
0.0011043
0.00127045
0.00143173
0.00158525
0.00173515
0.00188085
0.00201112
0.00212975
0.00225426
0.00237372
0.00243929
0.00246158
0.00226544
0.00165297
0.00121361
0.001059
0.00104808
0.00102883
0.0010917
0.00106659
0.00111882
0.00117287
0.00114643
0.00126517
0.00163341
0.00210398
0.00229047
0.00226529
0.00218742
0.002142
0.00208749
0.00200331
0.00191793
0.00182976
0.00172495
0.00160931
0.00149072
0.00136442
0.00122814
0.00108726
0.000942671
0.000791956
0.000636391
0.000478785
0.000318361
0.000154932
-9.88719e-06
-0.000174919
-0.000340625
-0.000506089
-0.000670205
-0.000832287
-0.000992199
-0.00114874
-0.00130125
-0.00144898
-0.0015915
-0.00172768
-0.00185708
-0.00197887
-0.00209262
-0.00219736
-0.00229285
-0.00237827
-0.0024534
-0.00251747
-0.00257047
-0.00261173
-0.00264137
-0.00265882
-0.00266439
-0.00265763
-0.00263901
-0.00260818
-0.00256581
-0.00251166
-0.0024465
-0.00237022
-0.00228377
-0.00218706
-0.00208109
-0.00196594
-0.00184275
-0.00171142
-0.00157314
-0.0014282
-0.00127761
-0.00112124
-0.000960595
-0.00079596
-0.000627882
-0.000456508
-0.000283795
-0.000109449
6.64989e-05
0.000242811
0.000417466
0.000592249
0.000766561
0.000948689
0.00111382
0.00127898
0.0014416
0.00159247
0.0017354
0.00188469
0.00202229
0.00212717
0.0022342
0.00236572
0.00244343
0.00229334
0.00169782
0.00116379
0.00108696
0.00104227
0.00103647
0.00108067
0.00113153
0.0011247
0.00114645
0.00115108
0.00116218
0.00121832
0.00133543
0.00170988
0.00207239
0.00216122
0.00213179
0.00208892
0.00204055
0.00197165
0.00189396
0.00180765
0.00170801
0.00159822
0.00148226
0.00135837
0.00122563
0.00108708
0.00094401
0.000795585
0.000642147
0.000485704
0.000326677
0.000165026
1.49133e-06
-0.000162588
-0.000326976
-0.000491155
-0.000654313
-0.000815444
-0.000974222
-0.0011298
-0.00128146
-0.0014283
-0.0015699
-0.00170531
-0.00183396
-0.00195501
-0.00206805
-0.00217219
-0.00226707
-0.00235194
-0.00242655
-0.00249019
-0.00254277
-0.0025837
-0.00261303
-0.00263026
-0.00263562
-0.00262876
-0.00261004
-0.00257923
-0.00253688
-0.00248285
-0.00241785
-0.00234182
-0.00225563
-0.00215928
-0.00205372
-0.00193907
-0.00181633
-0.00168561
-0.00154802
-0.00140374
-0.00125379
-0.00109832
-0.000938558
-0.000774638
-0.000607446
-0.000437249
-0.000265417
-9.18246e-05
8.29403e-05
0.000258027
0.000431864
0.000605653
0.000778913
0.00095778
0.00112625
0.00128674
0.00144322
0.0016006
0.00174821
0.00188299
0.00201458
0.00214016
0.00223776
0.00232694
0.00243128
0.00208807
0.0013454
0.00103318
0.00102948
0.00108353
0.00112206
0.00111814
0.00109538
0.00114385
0.00117979
0.00118185
0.00119787
0.00122231
0.00128698
0.00143401
0.0017897
0.00206624
0.00209006
0.00203634
0.00198957
0.00194704
0.00187541
0.00178369
0.00169181
0.00159152
0.00147472
0.00135063
0.00122369
0.0010883
0.000944483
0.000797618
0.000647489
0.000492029
0.00033316
0.000173214
1.13999e-05
-0.000152175
-0.000315848
-0.000478676
-0.000640858
-0.000801443
-0.000959349
-0.00111395
-0.00126491
-0.00141114
-0.00155195
-0.00168665
-0.00181472
-0.00193519
-0.0020476
-0.00215122
-0.00224562
-0.00233003
-0.0024042
-0.00246749
-0.00251973
-0.00256037
-0.00258943
-0.00260648
-0.00261168
-0.00260471
-0.00258592
-0.00255513
-0.0025128
-0.00245886
-0.00239399
-0.00231818
-0.00223218
-0.00213612
-0.00203093
-0.00191666
-0.00179427
-0.0016641
-0.0015271
-0.00138326
-0.00123384
-0.00107928
-0.000920161
-0.000756588
-0.000590333
-0.000421412
-0.000249802
-7.64826e-05
9.6343e-05
0.000270231
0.000445196
0.00061792
0.000787346
0.00096562
0.0011319
0.00129418
0.00145026
0.00160411
0.00175404
0.00188761
0.00201004
0.00214491
0.00225537
0.00230905
0.00236912
0.00174029
0.00112765
0.00108255
0.00105961
0.00110241
0.00111324
0.0011241
0.00114077
0.00116935
0.00117443
0.00120326
0.00124329
0.00123225
0.0012708
0.00134924
0.00165402
0.00198018
0.00200685
0.00200704
0.00197066
0.00191541
0.00185017
0.00177301
0.00168185
0.00157945
0.00146843
0.00134874
0.00122085
0.00108653
0.000946327
0.000800526
0.000650204
0.000496402
0.000339305
0.000179637
1.83379e-05
-0.000143916
-0.000306746
-0.00046924
-0.000630667
-0.000790361
-0.000947732
-0.00110186
-0.00125211
-0.00139773
-0.00153808
-0.00167228
-0.00179979
-0.00191981
-0.00203181
-0.00213501
-0.002229
-0.00231308
-0.00238692
-0.00244991
-0.00250188
-0.00254231
-0.00257118
-0.00258807
-0.00259314
-0.00258611
-0.00256726
-0.00253646
-0.00249415
-0.0024403
-0.00237552
-0.00229985
-0.00221404
-0.00211823
-0.00201324
-0.00189927
-0.00177728
-0.00164744
-0.00151073
-0.00136745
-0.00121858
-0.00106427
-0.000905645
-0.000742982
-0.000577128
-0.000408325
-0.000237753
-6.55135e-05
0.000107604
0.000281125
0.000454077
0.000626501
0.000797098
0.000971286
0.00113435
0.00129936
0.00145904
0.00160598
0.00174982
0.00189501
0.00202638
0.00213624
0.0022363
0.00234078
0.00218788
0.00148579
0.00106291
0.00109195
0.00110902
0.00110776
0.00110591
0.00113845
0.0011739
0.001174
0.00117686
0.00121545
0.00125726
0.00126475
0.00126883
0.00134118
0.0015689
0.00186072
0.00196723
0.00197621
0.00194895
0.00189375
0.00183502
0.00176591
0.00167383
0.00157037
0.00146421
0.00134777
0.00121882
0.00108495
0.000947514
0.00080274
0.000652079
0.0004992
0.000343508
0.000184168
2.30532e-05
-0.000138367
-0.000300487
-0.000462738
-0.000623755
-0.000782827
-0.000939771
-0.0010936
-0.00124342
-0.00138859
-0.00152861
-0.0016625
-0.00178963
-0.00190933
-0.00202105
-0.00212397
-0.00221767
-0.00230152
-0.00237515
-0.00243794
-0.00248972
-0.00253001
-0.00255874
-0.00257553
-0.00258051
-0.00257343
-0.00255455
-0.00252373
-0.00248144
-0.00242766
-0.00236292
-0.00228735
-0.00220168
-0.00210602
-0.00200117
-0.00188742
-0.00176568
-0.00163606
-0.00149956
-0.00135667
-0.00120812
-0.00105402
-0.000895752
-0.000733673
-0.000568044
-0.000399363
-0.000229548
-5.79901e-05
0.000115447
0.000288672
0.000459978
0.000632324
0.000804471
0.000974232
0.00114056
0.00130024
0.00145673
0.00161156
0.0017569
0.00189156
0.00202121
0.00213717
0.00225424
0.00236373
0.00205735
0.00144533
0.00104382
0.00107471
0.00110682
0.00111167
0.0011376
0.00114577
0.00115263
0.00117688
0.00121375
0.00122409
0.00122658
0.00128347
0.00131026
0.0013012
0.00150164
0.00179745
0.00195632
0.00194933
0.00192806
0.001893
0.00183145
0.00175299
0.00166829
0.00157241
0.00146157
0.0013428
0.00121903
0.0010868
0.000946643
0.000802457
0.000654341
0.000501206
0.000344626
0.000186353
2.61464e-05
-0.000135664
-0.00029774
-0.000459246
-0.00062002
-0.0007792
-0.000935832
-0.00108926
-0.00123899
-0.00138407
-0.00152379
-0.00165747
-0.00178451
-0.00190405
-0.00201556
-0.00211836
-0.00221196
-0.00229567
-0.00236916
-0.00243187
-0.00248357
-0.00252377
-0.00255243
-0.00256918
-0.00257411
-0.002567
-0.00254809
-0.0025173
-0.00247501
-0.00242123
-0.00235654
-0.00228104
-0.00219539
-0.0020998
-0.00199509
-0.00188144
-0.00175971
-0.00163029
-0.00149404
-0.00135113
-0.00120264
-0.00104901
-0.000890902
-0.000728538
-0.000563358
-0.000395465
-0.00022514
-5.32242e-05
0.000118646
0.000291472
0.00046478
0.000636176
0.000805114
0.000974232
0.00114056
0.00130024
0.00145673
0.00161156
0.0017569
0.00189156
0.00202121
0.00213717
0.00225424
0.00236373
0.00205735
0.00144533
0.00104382
0.00107471
0.00110682
0.00111167
0.0011376
0.00114577
0.00115263
0.00117688
0.00121375
0.00122409
0.00122658
0.00128347
0.00131026
0.0013012
0.00150164
0.00179745
0.00195632
0.00194933
0.00192806
0.001893
0.00183145
0.00175299
0.00166829
0.00157241
0.00146157
0.0013428
0.00121903
0.0010868
0.000946643
0.000802457
0.000654341
0.000501206
0.000344626
0.000186353
2.61464e-05
-0.000135664
-0.00029774
-0.000459246
-0.00062002
-0.0007792
-0.000935832
-0.00108926
-0.00123899
-0.00138407
-0.00152379
-0.00165747
-0.00178451
-0.00190405
-0.00201556
-0.00211836
-0.00221196
-0.00229567
-0.00236916
-0.00243187
-0.00248357
-0.00252377
-0.00255243
-0.00256918
-0.00257411
-0.002567
-0.00254809
-0.0025173
-0.00247501
-0.00242123
-0.00235654
-0.00228104
-0.00219539
-0.0020998
-0.00199509
-0.00188144
-0.00175971
-0.00163029
-0.00149404
-0.00135113
-0.00120264
-0.00104901
-0.000890902
-0.000728538
-0.000563358
-0.000395465
-0.00022514
-5.32242e-05
0.000118646
0.000291472
0.00046478
0.000636176
0.000805114
0.000971286
0.00113435
0.00129936
0.00145904
0.00160598
0.00174982
0.00189501
0.00202638
0.00213624
0.0022363
0.00234078
0.00218788
0.00148579
0.00106291
0.00109195
0.00110902
0.00110776
0.00110591
0.00113845
0.0011739
0.001174
0.00117686
0.00121545
0.00125726
0.00126475
0.00126883
0.00134118
0.0015689
0.00186072
0.00196723
0.00197621
0.00194895
0.00189375
0.00183502
0.00176591
0.00167383
0.00157037
0.00146421
0.00134777
0.00121882
0.00108495
0.000947514
0.00080274
0.000652079
0.0004992
0.000343508
0.000184168
2.30532e-05
-0.000138367
-0.000300487
-0.000462738
-0.000623755
-0.000782827
-0.000939771
-0.0010936
-0.00124342
-0.00138859
-0.00152861
-0.0016625
-0.00178963
-0.00190933
-0.00202105
-0.00212397
-0.00221767
-0.00230152
-0.00237515
-0.00243794
-0.00248972
-0.00253001
-0.00255874
-0.00257553
-0.00258051
-0.00257343
-0.00255455
-0.00252373
-0.00248144
-0.00242766
-0.00236292
-0.00228735
-0.00220168
-0.00210602
-0.00200117
-0.00188742
-0.00176568
-0.00163606
-0.00149956
-0.00135667
-0.00120812
-0.00105402
-0.000895752
-0.000733673
-0.000568044
-0.000399363
-0.000229548
-5.79901e-05
0.000115447
0.000288672
0.000459978
0.000632324
0.000804471
0.00096562
0.0011319
0.00129418
0.00145026
0.00160411
0.00175404
0.00188761
0.00201004
0.00214491
0.00225537
0.00230905
0.00236912
0.00174029
0.00112765
0.00108255
0.00105961
0.00110241
0.00111324
0.0011241
0.00114077
0.00116935
0.00117443
0.00120326
0.00124329
0.00123225
0.0012708
0.00134924
0.00165402
0.00198018
0.00200685
0.00200704
0.00197066
0.00191541
0.00185017
0.00177301
0.00168185
0.00157945
0.00146843
0.00134874
0.00122085
0.00108653
0.000946327
0.000800526
0.000650204
0.000496402
0.000339305
0.000179637
1.83379e-05
-0.000143916
-0.000306746
-0.00046924
-0.000630667
-0.000790361
-0.000947732
-0.00110186
-0.00125211
-0.00139773
-0.00153808
-0.00167228
-0.00179979
-0.00191981
-0.00203181
-0.00213501
-0.002229
-0.00231308
-0.00238692
-0.00244991
-0.00250188
-0.00254231
-0.00257118
-0.00258807
-0.00259314
-0.00258611
-0.00256726
-0.00253646
-0.00249415
-0.0024403
-0.00237552
-0.00229985
-0.00221404
-0.00211823
-0.00201324
-0.00189927
-0.00177728
-0.00164744
-0.00151073
-0.00136745
-0.00121858
-0.00106427
-0.000905645
-0.000742982
-0.000577128
-0.000408325
-0.000237753
-6.55135e-05
0.000107604
0.000281125
0.000454077
0.000626501
0.000797098
0.00095778
0.00112625
0.00128674
0.00144322
0.0016006
0.00174821
0.00188299