# vtk DataFile Version 3.0
fluid_state
ASCII
DATASET RECTILINEAR_GRID
DIMENSIONS 100 40 1
X_COORDINATES 100 float
0.5 1.5 2.5 3.5 4.5 5.5 6.5 7.5 8.5 9.5 10.5 11.5 12.5 13.5 14.5 15.5 16.5 17.5 18.5 19.5 20.5 21.5 22.5 23.5 24.5 25.5 26.5 27.5 28.5 29.5 30.5 31.5 32.5 33.5 34.5 35.5 36.5 37.5 38.5 39.5 40.5 41.5 42.5 43.5 44.5 45.5 46.5 47.5 48.5 49.5 50.5 51.5 52.5 53.5 54.5 55.5 56.5 57.5 58.5 59.5 60.5 61.5 62.5 63.5 64.5 65.5 66.5 67.5 68.5 69.5 70.5 71.5 72.5 73.5 74.5 75.5 76.5 77.5 78.5 79.5 80.5 81.5 82.5 83.5 84.5 85.5 86.5 87.5 88.5 89.5 90.5 91.5 92.5 93.5 94.5 95.5 96.5 97.5 98.5 99.5 
Y_COORDINATES 40 float
0.5 1.5 2.5 3.5 4.5 5.5 6.5 7.5 8.5 9.5 10.5 11.5 12.5 13.5 14.5 15.5 16.5 17.5 18.5 19.5 20.5 21.5 22.5 23.5 24.5 25.5 26.5 27.5 28.5 29.5 30.5 31.5 32.5 33.5 34.5 35.5 36.5 37.5 38.5 39.5 
Z_COORDINATES 1 float
0
POINT_DATA 4000
SCALARS density_difference float 1
LOOKUP_TABLE default
0.000758927
0.000766478
0.000772494
0.000776311
0.000774884
0.000765755
0.000748705
0.000729749
0.000701284
0.000651662
0.000599465
0.000542988
0.00045681
0.000362577
0.000269013
0.000151564
2.86198e-05
-9.06363e-05
-0.000222021
-0.000343972
-0.000452472
-0.000568022
-0.000661033
-0.000730684
-0.000803695
-0.000855549
-0.000882932
-0.00091192
-0.000926893
-0.000923212
-0.000919513
-0.000911415
-0.000892146
-0.000868273
-0.000845649
-0.000821351
-0.000790898
-0.000759379
-0.000731333
-0.000701802
-0.000668752
-0.00063745
-0.000608567
-0.00057812
-0.000546717
-0.000517438
-0.000489159
-0.000459951
-0.000431083
-0.000403742
-0.000376648
-0.000349261
-0.000322571
-0.000296735
-0.000270889
-0.000245136
-0.000219976
-0.000195201
-0.000170396
-0.000145816
-0.000121593
-9.75097e-05
-7.3435e-05
-4.95598e-05
-2.58394e-05
-2.1714e-06
2.14748e-05
4.50069e-05
6.84905e-05
9.19378e-05
0.000115393
0.000138803
0.000162178
0.000185531
0.000208949
0.000232315
0.000255607
0.000278941
0.000302374
0.000325626
0.000348794
0.000372148
0.000395481
0.000418392
0.000441388
0.000464691
0.000487509
0.000509733
0.000532513
0.000555316
0.000576747
0.000597936
0.000620183
0.00064109
0.000659836
0.000679536
0.000699531
0.000715688
0.000730199
0.000746094
0.000749741
0.000757251
0.000762587
0.00076445
0.000760701
0.000747037
0.000731095
0.000714053
0.000674243
0.000621989
0.000581456
0.00051608
0.000419289
0.000336322
0.000247905
0.000124056
-3.8321e-07
-0.000107593
-0.000228757
-0.000357774
-0.000460242
-0.000559191
-0.000656014
-0.000720746
-0.000782139
-0.000842399
-0.000864597
-0.000880227
-0.0009066
-0.000907934
-0.000892415
-0.00088501
-0.000875931
-0.00085287
-0.000824328
-0.000802421
-0.000779516
-0.000747847
-0.000716211
-0.000690067
-0.000661573
-0.000629101
-0.00059894
-0.000571528
-0.000542084
-0.000511746
-0.000483531
-0.000456345
-0.000428012
-0.000400091
-0.000373516
-0.000347228
-0.000320494
-0.000294491
-0.000269152
-0.00024388
-0.000218547
-0.000193841
-0.000169363
-0.000144941
-0.000120592
-9.66595e-05
-7.27298e-05
-4.88953e-05
-2.51267e-05
-1.59568e-06
2.20243e-05
4.55193e-05
6.9003e-05
9.23677e-05
0.000115841
0.000139166
0.000162544
0.000185871
0.000209271
0.000232502
0.000255863
0.000279183
0.000302473
0.000325606
0.000348964
0.000372171
0.00039519
0.000418168
0.000441412
0.000464173
0.000486638
0.000509326
0.000532044
0.000553679
0.000575187
0.000597165
0.000618269
0.000637643
0.000657495
0.000677341
0.000694568
0.00070996
0.00072602
0.000739909
0.000743789
0.000753976
0.000757474
0.00075429
0.000749705
0.000741524
0.000723861
0.000692297
0.000657128
0.000621218
0.000558558
0.000478571
0.000413031
0.000321958
0.000201279
9.9515e-05
-1.21703e-05
-0.000145686
-0.0002591
-0.000372122
-0.000489532
-0.000574396
-0.00065876
-0.00074223
-0.00078607
-0.000824416
-0.000867873
-0.00088176
-0.000883626
-0.000890705
-0.000887359
-0.000871447
-0.000852826
-0.000837427
-0.000816393
-0.000787472
-0.000760889
-0.000737517
-0.00070862
-0.000677313
-0.000649635
-0.000622645
-0.000592306
-0.000562608
-0.000535215
-0.000507483
-0.000478431
-0.000450795
-0.000424155
-0.000397154
-0.000369961
-0.000343987
-0.00031825
-0.000292432
-0.000266828
-0.000242017
-0.00021713
-0.000192398
-0.000167886
-0.000143823
-0.00011961
-9.56499e-05
-7.17776e-05
-4.81637e-05
-2.44011e-05
-8.82797e-07
2.26686e-05
4.6038e-05
6.95592e-05
9.28795e-05
0.000116289
0.000139546
0.00016298
0.000186225
0.000209559
0.00023278
0.000256196
0.000279357
0.0003026
0.000325814
0.000349147
0.000372072
0.000395168
0.000418307
0.000441261
0.000463666
0.000486528
0.000509253
0.00053116
0.000552688
0.00057505
0.000596333
0.000616067
0.000636293
0.000657037
0.000674557
0.000690623
0.000708315
0.000723924
0.000733854
0.000744635
0.000750451
0.000753474
0.000753842
0.000747561
0.000736916
0.000718839
0.000686175
0.000653947
0.000613307
0.000540498
0.000468268
0.000401077
0.000292213
0.000172396
6.92973e-05
-4.88041e-05
-0.000189213
-0.000313112
-0.000415873
-0.000531699
-0.000629661
-0.000698295
-0.000772868
-0.000822747
-0.000842832
-0.000878044
-0.000898993
-0.000887098
-0.000883305
-0.000883412
-0.000868417
-0.000843346
-0.000822518
-0.000804955
-0.000779474
-0.000748535
-0.000723099
-0.000698593
-0.000669019
-0.000638713
-0.000612229
-0.000585006
-0.000555674
-0.000527197
-0.000500773
-0.000473407
-0.000445628
-0.000418837
-0.000393037
-0.00036655
-0.000340407
-0.000314933
-0.000289915
-0.000264506
-0.000239662
-0.000215111
-0.000190803
-0.000166302
-0.000142321
-0.000118356
-9.45833e-05
-7.06969e-05
-4.72023e-05
-2.35697e-05
-1.37832e-07
2.34077e-05
4.66824e-05
7.01539e-05
9.3403e-05
0.000116805
0.000140017
0.000163415
0.000186574
0.000209945
0.000233151
0.000256473
0.000279567
0.000302942
0.000326073
0.000349215
0.000372219
0.000395511
0.00041832
0.000441089
0.000463898
0.000486771
0.000508761
0.000530882
0.000553145
0.000574752
0.000595124
0.00061612
0.000636746
0.000655367
0.00067295
0.000691492
0.000707587
0.000720376
0.000733023
0.000746835
0.00075054
0.000756349
0.000759403
0.000751328
0.000735875
0.000719166
0.000696581
0.000655463
0.00059382
0.000540985
0.000478046
0.000360728
0.000253297
0.000167826
1.85266e-05
-0.000129809
-0.000239035
-0.000377762
-0.000509833
-0.000603139
-0.000711866
-0.0007847
-0.000820757
-0.000880946
-0.000915447
-0.000904492
-0.000911756
-0.000920375
-0.000904611
-0.000879082
-0.000862722
-0.000849122
-0.000820956
-0.000789071
-0.000768227
-0.000744755
-0.000712666
-0.000683318
-0.000659526
-0.000631734
-0.000601335
-0.000574065
-0.00054858
-0.000520373
-0.000492397
-0.000466341
-0.000440549
-0.000413442
-0.000387406
-0.000362165
-0.000336858
-0.000311116
-0.000286394
-0.00026179
-0.000237226
-0.000212587
-0.000188668
-0.000164574
-0.000140673
-0.000116745
-9.32769e-05
-6.95519e-05
-4.60946e-05
-2.25418e-05
6.97738e-07
2.42045e-05
4.7436e-05
7.08293e-05
9.39768e-05
0.000117394
0.000140543
0.000163881
0.000187014
0.000210416
0.00023352
0.000256822
0.000279969
0.000303335
0.000326317
0.000349549
0.000372663
0.000395809
0.000418481
0.000441564
0.00046442
0.000486905
0.000508993
0.000531729
0.000553661
0.000574689
0.00059585
0.000617563
0.000636996
0.000655396
0.000674963
0.000693475
0.000707383
0.000721536
0.00073699
0.000749769
0.000761445
0.000766486
0.000762409
0.000760219
0.000751452
0.000727852
0.000701242
0.000662219
0.000602088
0.000543732
0.000459142
0.000341411
0.000238712
0.000113518
-4.70361e-05
-0.000195655
-0.000333574
-0.000476458
-0.000627206
-0.000727474
-0.00081394
-0.000899282
-0.000935739
-0.000956947
-0.000989751
-0.000977463
-0.000956777
-0.000952444
-0.000931725
-0.000901304
-0.000871776
-0.000846473
-0.000822108
-0.000789844
-0.000758466
-0.000732716
-0.000705772
-0.000674821
-0.000646422
-0.000620255
-0.00059289
-0.000564213
-0.00053769
-0.000511688
-0.000485035
-0.000458211
-0.000432923
-0.000407431
-0.00038181
-0.000356403
-0.000331961
-0.000307094
-0.000282478
-0.000258055
-0.000234189
-0.000209927
-0.000186085
-0.000162261
-0.000138784
-0.000114994
-9.16322e-05
-6.81215e-05
-4.48857e-05
-2.13884e-05
1.7478e-06
2.51293e-05
4.82413e-05
7.16101e-05
9.46904e-05
0.00011804
0.000141107
0.000164463
0.000187567
0.000210901
0.000233961
0.000257359
0.000280462
0.000303724
0.000326782
0.000350186
0.000373124
0.0003962
0.000419216
0.0004424
0.000464838
0.000487592
0.000510363
0.00053273
0.000554167
0.000576397
0.000598199
0.000618542
0.000638362
0.000659416
0.000678216
0.000694522
0.000711825
0.000729133
0.000740264
0.000761833
0.000774375
0.000777519
0.000776568
0.000777845
0.000769271
0.000745601
0.000712712
0.000675433
0.00062854
0.000540844
0.000427472
0.000352257
0.000222138
1.24279e-05
-0.000112891
-0.000252513
-0.000474331
-0.000626189
-0.000749329
-0.000892555
-0.0009607
-0.00102578
-0.00109849
-0.00107498
-0.00105022
-0.00107331
-0.00104658
-0.000990976
-0.000953519
-0.000934034
-0.000901223
-0.000850219
-0.000817078
-0.00079456
-0.000758903
-0.0007207
-0.000694479
-0.000668378
-0.000636292
-0.000606399
-0.000581793
-0.000555001
-0.000526595
-0.000500467
-0.000476173
-0.000449998
-0.000424112
-0.000399556
-0.000375445
-0.000350236
-0.000325876
-0.000301978
-0.000278166
-0.000253833
-0.000230306
-0.000206721
-0.000183255
-0.00015953
-0.000136402
-0.000112993
-8.98009e-05
-6.64033e-05
-4.34264e-05
-2.01052e-05
2.9415e-06
2.62192e-05
4.91786e-05
7.24883e-05
9.55012e-05
0.000118776
0.000141787
0.000165138
0.00018817
0.000211487
0.000234577
0.000257966
0.000280998
0.000304352
0.000327498
0.000350832
0.000373771
0.000397122
0.000420193
0.000443233
0.000465932
0.000489163
0.00051179
0.000534099
0.00055636
0.000579099
0.000600419
0.000621318
0.000642772
0.000663855
0.00068207
0.000700557
0.00071998
0.000736075
0.000747806
0.000779336
0.000784896
0.000794924
0.000806639
0.000798996
0.000783311
0.000777232
0.000748168
0.000691996
0.000638613
0.00055755
0.000445586
0.000326797
0.000156394
-1.30626e-05
-0.000184982
-0.000402717
-0.000594466
-0.000778699
-0.000920236
-0.00107435
-0.00116979
-0.00118635
-0.00121202
-0.00123346
-0.00118462
-0.00114856
-0.00110753
-0.00105721
-0.00101336
-0.000956304
-0.000912552
-0.000875601
-0.000829227
-0.000786913
-0.000755139
-0.000721593
-0.000685626
-0.000654109
-0.000626699
-0.000597246
-0.000568096
-0.000541683
-0.000516426
-0.000489687
-0.000464192
-0.000439895
-0.000415622
-0.00039062
-0.000366878
-0.000343283
-0.000319595
-0.000295665
-0.000272628
-0.000249264
-0.000226013
-0.000202651
-0.000179837
-0.000156591
-0.000133623
-0.000110485
-8.77037e-05
-6.45229e-05
-4.16697e-05
-1.85584e-05
4.26445e-06
2.74465e-05
5.03186e-05
7.34976e-05
9.63948e-05
0.000119645
0.000142613
0.00016588
0.000188869
0.000212236
0.000235304
0.000258628
0.000281723
0.00030521
0.000328289
0.000351612
0.000374828
0.000398325
0.000421216
0.00044451
0.000467799
0.000490957
0.000513397
0.00053669
0.000559708
0.000581791
0.000603579
0.000626774
0.000648328
0.000668135
0.000689224
0.000711187
0.000728142
0.000744077
0.00076385
0.000794976
0.00080806
0.00082298
0.000829951
0.000826664
0.000822367
0.000811099
0.000779936
0.000731711
0.00066032
0.000580261
0.000483992
0.000286108
9.30261e-05
-3.97308e-06
-0.000285021
-0.000572707
-0.000696564
-0.000936883
-0.00114825
-0.0012393
-0.00136746
-0.0014081
-0.00132588
-0.00135378
-0.00134642
-0.0012299
-0.0011602
-0.00111981
-0.00107157
-0.000993024
-0.00092578
-0.000890293
-0.000845846
-0.000789848
-0.000749559
-0.000718092
-0.00068068
-0.0006433
-0.000614261
-0.00058634
-0.000556197
-0.000527965
-0.000503533
-0.000478209
-0.000452418
-0.000428113
-0.000405287
-0.000381336
-0.000357696
-0.000334779
-0.000312324
-0.000289033
-0.000266299
-0.00024369
-0.000221235
-0.000198245
-0.000175785
-0.000153112
-0.000130582
-0.000107681
-8.52017e-05
-6.23713e-05
-3.97414e-05
-1.6795e-05
5.82232e-06
2.88266e-05
5.15806e-05
7.46493e-05
9.74469e-05
0.000120624
0.000143518
0.000166743
0.000189731
0.000213066
0.000236092
0.000259485
0.000282649
0.000306092
0.000329227
0.000352788
0.000376065
0.00039952
0.000422743
0.000446438
0.000469663
0.000492996
0.000516287
0.00053996
0.0005628
0.000585838
0.000609095
0.000632252
0.000654054
0.000676478
0.000699148
0.000720349
0.000739649
0.000760452
0.000780119
0.000815878
0.000840851
0.000852232
0.000853482
0.000870087
0.000876651
0.000842798
0.000815004
0.000798664
0.000714812
0.000595363
0.000490199
0.000322997
0.000111861
-0.000140783
-0.00039207
-0.000543223
-0.000836026
-0.00113034
-0.0013542
-0.00142357
-0.00149616
-0.00158587
-0.00156677
-0.00144141
-0.0013807
-0.00131798
-0.00127408
-0.00117778
-0.00107421
-0.00103052
-0.000973039
-0.000895014
-0.00084241
-0.000803712
-0.000755091
-0.000707022
-0.000672146
-0.00063934
-0.000603166
-0.00057094
-0.000544546
-0.000516849
-0.000488931
-0.000464169
-0.000441152
-0.000416557
-0.000392924
-0.000370731
-0.000348641
-0.000325599
-0.000303582
-0.000281776
-0.000259788
-0.00023734
-0.0002156
-0.000193527
-0.000171431
-0.000149052
-0.000127098
-0.000104683
-8.24107e-05
-5.98604e-05
-3.75907e-05
-1.48817e-05
7.60573e-06
3.0407e-05
5.29692e-05
7.59352e-05
9.86611e-05
0.000121713
0.000144529
0.000167745
0.000190705
0.000213972
0.000237031
0.000260499
0.000283649
0.000307099
0.000330431
0.000354124
0.000377373
0.000401037
0.000424703
0.000448484
0.000471741
0.000495789
0.000519759
0.000543298
0.000566636
0.00059136
0.000615189
0.000637963
0.000661846
0.000687213
0.000709346
0.000730806
0.000755977
0.000779757
0.000796031
0.00084561
0.00086592
0.000883831
0.000902719
0.0009148
0.00091187
0.000906161
0.00089125
0.000840242
0.000770042
0.000674002
0.000509794
0.000364822
0.000170378
-0.000261622
-0.000452386
-0.000515753
-0.000922136
-0.0011519
-0.00142357
-0.00171528
-0.00174424
-0.00162531
-0.001674
-0.00154146
-0.00144185
-0.00141852
-0.00132002
-0.00121668
-0.00111481
-0.00104776
-0.000988432
-0.000913774
-0.000852089
-0.00080426
-0.000754787
-0.000706026
-0.00066566
-0.000629503
-0.000593657
-0.00055994
-0.000530928
-0.000503572
-0.000476514
-0.000450765
-0.000427543
-0.000404518
-0.000381566
-0.000359249
-0.000338077
-0.000316422
-0.000294877
-0.000273501
-0.000252541
-0.000230975
-0.000209612
-0.00018811
-0.000166754
-0.000144877
-0.00012324
-0.000101296
-7.94579e-05
-5.71973e-05
-3.51675e-05
-1.27643e-05
9.49475e-06
3.21219e-05
5.45401e-05
7.73406e-05
9.99491e-05
0.000122913
0.000145687
0.00016882
0.00019173
0.000215017
0.000238117
0.00026153
0.000284731
0.000308359
0.000331752
0.000355418
0.000378966
0.000402967
0.00042661
0.000450582
0.00047462
0.000498992
0.000522863
0.000547358
0.000572051
0.000596696
0.000620909
0.00064629
0.000671581
0.000696242
0.000721017
0.000747291
0.000772264
0.000795997
0.000820608
0.000875179
0.000894277
0.000924038
0.000955083
0.000959195
0.000961404
0.000988838
0.000969948
0.000889045
0.000850367
0.000790187
0.000581713
0.000372922
0.000213429
-6.62614e-05
-0.000449788
-0.000859565
-0.00082014
-0.000956943
-0.001304
-0.00133685
-0.00164558
-0.00174385
-0.00152368
-0.00160523
-0.0016121
-0.00151303
-0.00129188
-0.00121967
-0.0011866
-0.00106562
-0.000973556
-0.000931071
-0.000872148
-0.000799793
-0.000749094
-0.000709571
-0.000662043
-0.000616952
-0.000584042
-0.000552393
-0.000518129
-0.00048867
-0.000464594
-0.00043915
-0.000413697
-0.000391412
-0.000370595
-0.000348348
-0.000326874
-0.000306622
-0.000286345
-0.000265174
-0.000244697
-0.00022429
-0.000203615
-0.000182433
-0.000161673
-0.000140535
-0.000119273
-9.76563e-05
-7.62713e-05
-5.44246e-05
-3.26088e-05
-1.04679e-05
1.15156e-05
3.39311e-05
5.62295e-05
7.88529e-05
0.000101329
0.000124207
0.000146926
0.000169962
0.000192858
0.00021615
0.00023924
0.000262647
0.000285964
0.000309665
0.000333094
0.000356914
0.000380747
0.000404859
0.000428654
0.000453104
0.000477612
0.000502113
0.000526504
0.000552059
0.000577337
0.00060223
0.000627924
0.000655233
0.000680994
0.000706512
0.000734927
0.000764033
0.000788811
0.000815763
0.000848262
0.00090215
0.000937404
0.000967038
0.000990823
0.00102099
0.00104609
0.00104295
0.00103142
0.00103167
0.000964577
0.000818128
0.000714335
0.000541702
0.000247988
0.000185597
-0.000320123
-0.00111707
-0.000501146
-0.000445942
-0.00102502
-0.000534392
-0.000972745
-0.0011983
-0.00101028
-0.00157646
-0.00169155
-0.00144448
-0.00136059
-0.00125237
-0.00115867
-0.00107596
-0.00100377
-0.000934184
-0.000864663
-0.00080633
-0.000754173
-0.000702238
-0.000655445
-0.000613854
-0.000574896
-0.000539629
-0.000508384
-0.000478487
-0.000450845
-0.000426126
-0.000402819
-0.000379639
-0.000358101
-0.000337622
-0.000317235
-0.000296718
-0.000277052
-0.000257299
-0.000237359
-0.000217204
-0.000197357
-0.000177035
-0.000156607
-0.000135891
-0.000115247
-9.4104e-05
-7.29645e-05
-5.14869e-05
-3.00377e-05
-8.15917e-06
1.3654e-05
3.5823e-05
5.79282e-05
8.04099e-05
0.000102803
0.000125539
0.000148168
0.000171168
0.000194066
0.000217274
0.000240373
0.000263879
0.000287244
0.000310898
0.000334531
0.000358605
0.000382441
0.00040666
0.000431054
0.000455798
0.000480224
0.000505419
0.000530949
0.000556484
0.000581972
0.00060898
0.000635997
0.000662609
0.000690367
0.000720199
0.000748697
0.000777261
0.000809047
0.000841547
0.000870574
0.000932939
0.000976354
0.00100991
0.00103792
0.00108328
0.00112036
0.00111702
0.00112767
0.00115714
0.00107377
0.000932913
0.00088396
0.000733696
0.000401049
0.000131843
-0.000235392
-0.000585081
-0.000392182
-0.000274835
-0.000437066
-0.00047071
-0.000593623
-0.000476263
-0.000552802
-0.00106332
-0.00134823
-0.00136368
-0.00142976
-0.00128271
-0.00112412
-0.00108383
-0.00102174
-0.000926433
-0.000861511
-0.000815726
-0.000755067
-0.000693611
-0.00065041
-0.00061162
-0.000567251
-0.000528085
-0.000498646
-0.00046961
-0.000439432
-0.00041374
-0.00039197
-0.000369322
-0.000346996
-0.000326982
-0.000307877
-0.000287826
-0.000268273
-0.000249383
-0.000230342
-0.000210618
-0.000191196
-0.000171628
-0.000151761
-0.000131418
-0.000111198
-9.05694e-05
-6.97597e-05
-4.85767e-05
-2.74348e-05
-5.86317e-06
1.57635e-05
3.77227e-05
5.96504e-05
8.19713e-05
0.000104267
0.000126876
0.000149444
0.00017238
0.000195242
0.000218415
0.000241561
0.000265069
0.000288465
0.000312218
0.000336004
0.000360132
0.00038414
0.000408667
0.000433306
0.000458211
0.000483134
0.000508919
0.000534787
0.000560824
0.000587424
0.00061535
0.000642959
0.000670907
0.000700747
0.000732033
0.00076185
0.000793252
0.00082891
0.000864128
0.000895544
0.000966667
0.00100353
0.00105163
0.00110245
0.00113736
0.00117385
0.00122739
0.00124707
0.0012122
0.00122029
0.00123314
0.00100149
0.000738914
0.000493902
1.80861e-06
-0.000236626
-0.0003453
-0.00050873
-0.00055036
-0.000354246
-0.000469287
-0.000410318
-0.000359901
-0.00039792
-0.000571133
-0.000841218
-0.00120409
-0.00129842
-0.00122381
-0.00117593
-0.00109049
-0.000992766
-0.000930061
-0.000875846
-0.000806348
-0.000746604
-0.000699665
-0.000648489
-0.000598912
-0.000560798
-0.000525313
-0.000488437
-0.000457196
-0.000431556
-0.000405469
-0.000380289
-0.00035879
-0.000338723
-0.000317885
-0.000298156
-0.000279702
-0.000261084
-0.000241928
-0.000223358
-0.000204768
-0.000185748
-0.000166346
-0.000147098
-0.000127406
-0.000107417
-8.70922e-05
-6.67335e-05
-4.59004e-05
-2.49243e-05
-3.61819e-06
1.77448e-05
3.95155e-05
6.13385e-05
8.34806e-05
0.000105641
0.000128166
0.000150699
0.000173526
0.000196347
0.000219545
0.000242712
0.000266151
0.000289643
0.000313551
0.000337354
0.000361499
0.000385878
0.000410643
0.000435227
0.000460499
0.000486233
0.000512095
0.000537991
0.000565377
0.000593095
0.000620536
0.000649217
0.000680332
0.000710599
0.000741003
0.000775483
0.000811857
0.000845117
0.00088198
0.000925899
0.000994122
0.0010382
0.00109114
0.00115083
0.0011982
0.00124082
0.00130778
0.00135732
0.00134817
0.00136225
0.00138098
0.00128271
0.000969849
0.000237306
-0.000324812
-0.000352067
-0.000441162
-0.00048532
-0.000435868
-0.000389946
-0.000464222
-0.000381497
-0.000350027
-0.00037061
-0.000394052
-0.000423368
-0.000740301
-0.00114389
-0.00125809
-0.00116948
-0.00104191
-0.000986261
-0.000946143
-0.000872453
-0.00079693
-0.000745741
-0.000698982
-0.000644075
-0.000593668
-0.000554714
-0.000518594
-0.000481704
-0.000449341
-0.000422686
-0.0003972
-0.000372285
-0.000350114
-0.000330158
-0.000310206
-0.000290692
-0.000272247
-0.000254239
-0.000235786
-0.000217467
-0.000199238
-0.000180815
-0.000161889
-0.000142914
-0.000123628
-0.000104058
-8.40488e-05
-6.39306e-05
-4.34116e-05
-2.26872e-05
-1.59196e-06
1.96005e-05
4.11724e-05
6.28562e-05
8.48642e-05
0.000106939
0.000129356
0.00015182
0.00017459
0.00019741
0.000220555
0.000243716
0.000267207
0.000290764
0.000314652
0.000338575
0.000362919
0.000387381
0.000412212
0.000437199
0.000462795
0.000488584
0.000514869
0.000541631
0.00056929
0.000597245
0.000626051
0.000655979
0.000687172
0.000718802
0.000752077
0.000787676
0.000824813
0.000862249
0.000903123
0.000948617
0.00101574
0.00107681
0.00112787
0.00117919
0.00125424
0.0013262
0.00137129
0.00142867
0.00151109
0.00151802
0.00146343
0.00158952
0.00118499
3.70285e-05
-0.000482535
-0.000440809
-0.000398903
-0.000370114
-0.000413894
-0.000474077
-0.000370478
-0.000359475
-0.000418352
-0.000371325
-0.000262386
-0.000259679
-0.000471574
-0.000950629
-0.00117942
-0.00110269
-0.00105809
-0.00100685
-0.000918899
-0.000852069
-0.000811153
-0.000751464
-0.000683187
-0.000637184
-0.000598353
-0.000550011
-0.000507134
-0.000476877
-0.000446597
-0.000414374
-0.000388341
-0.000366923
-0.000344206
-0.00032218
-0.000303372
-0.000285314
-0.000266277
-0.000248037
-0.000230688
-0.000212903
-0.000194523
-0.000176468
-0.000158243
-0.000139489
-0.000120331
-0.00010116
-8.15335e-05
-6.15493e-05
-4.12284e-05
-2.07772e-05
1.14595e-07
2.12121e-05
4.26189e-05
6.41481e-05
8.60522e-05
0.000108075
0.000130382
0.000152775
0.00017552
0.000198335
0.000221408
0.000244583
0.00026814
0.00029171
0.000315568
0.000339661
0.000364156
0.000388595
0.000413552
0.00043899
0.000464706
0.000490453
0.000517376
0.000544893
0.000572356
0.000600674
0.000631249
0.000661763
0.000692271
0.000726135
0.00076272
0.000797276
0.000834393
0.000879099
0.000923526
0.000964165
0.00103729
0.00109465
0.00115724
0.00122127
0.00129318
0.00137505
0.00144471
0.00150845
0.0016079
0.00166663
0.00165509
0.00171886
0.000708155
-0.000305597
-0.00033337
-0.000401436
-0.000410762
-0.000403533
-0.000413647
-0.000409466
-0.000366435
-0.000386215
-0.000354329
-0.000322448
-0.000287358
-0.000290221
-0.000301203
-0.000686302
-0.00110343
-0.00108206
-0.00105897
-0.000983341
-0.000912103
-0.000860497
-0.000803219
-0.000741399
-0.00068667
-0.000636839
-0.000589264
-0.000545982
-0.000506826
-0.000471126
-0.000439341
-0.000410797
-0.000384362
-0.000360351
-0.00033858
-0.000318085
-0.000298415
-0.00027985
-0.000261898
-0.000244117
-0.000226411
-0.000208912
-0.000191221
-0.000173302
-0.000155114
-0.000136747
-0.000117952
-9.88714e-05
-7.94184e-05
-5.97112e-05
-3.95805e-05
-1.92163e-05
1.51292e-06
2.24503e-05
4.37492e-05
6.52161e-05
8.70106e-05
0.000108947
0.000131201
0.000153578
0.000176251
0.000199027
0.000222122
0.000245321
0.000268812
0.000292428
0.000316414
0.000340511
0.000364962
0.00038966
0.000414818
0.000440138
0.000466036
0.000492421
0.000519366
0.000546705
0.000575141
0.000604348
0.0006343
0.000665388
0.000698378
0.000732336
0.000767793
0.000805923
0.000846594
0.000888784
0.000934639
0.000984525
0.00105268
0.00110505
0.00117717
0.00125743
0.00132158
0.00139449
0.00150123
0.0016039
0.0016688
0.00173397
0.00186874
0.00157764
0.000298326
-0.000407704
-0.0002878
-0.000369258
-0.00042863
-0.000418625
-0.000373082
-0.000358891
-0.000407678
-0.000391574
-0.000308015
-0.000307971
-0.000321286
-0.00025739
-0.000216827
-0.000498874
-0.000977118
-0.00110337
-0.0010156
-0.000952316
-0.000927277
-0.000869323
-0.000786656
-0.000732925
-0.000693917
-0.000636772
-0.000580244
-0.000542875
-0.00050802
-0.000467364
-0.000433526
-0.000408309
-0.000382271
-0.000355923
-0.000334408
-0.000315393
-0.000295328
-0.00027608
-0.000258788
-0.000241552
-0.000223594
-0.000206124
-0.000188932
-0.000171202
-0.000152986
-0.000134827
-0.000116322
-9.73262e-05
-7.79541e-05
-5.84285e-05
-3.84518e-05
-1.81448e-05
2.48833e-06
2.33104e-05
4.45285e-05
6.59569e-05
8.76776e-05
0.000109552
0.000131771
0.000154133
0.000176757
0.000199515
0.000222618
0.00024582
0.000269281
0.000292941
0.000316987
0.00034108
0.000365546
0.000390406
0.000415644
0.000440936
0.000467018
0.000493736
0.000520666
0.000548052
0.000577121
0.000606723
0.000636402
0.000668114
0.000702516
0.000736373
0.000771489
0.000812168
0.000854843
0.000895221
0.000942461
0.000999416
0.00105753
0.00112395
0.00118684
0.00125577
0.00134335
0.00143341
0.001517
0.00161197
0.00171258
0.00185171
0.0020097
0.00144374
0.00034246
-0.000372097
-0.000426582
-0.000380141
-0.000357962
-0.000385912
-0.000405606
-0.000397076
-0.000364251
-0.000337725
-0.000356022
-0.000319592
-0.000279862
-0.000247201
-0.000196585
-0.000442145
-0.000841106
-0.00104835
-0.00102184
-0.000981389
-0.000908237
-0.000845422
-0.000801305
-0.000743264
-0.000678815
-0.0006308
-0.000589243
-0.000542001
-0.000499568
-0.000467147
-0.000436031
-0.000404624
-0.000378322
-0.000356006
-0.000333603
-0.000312223
-0.000293412
-0.000275456
-0.000257129
-0.000239458
-0.00022244
-0.000205163
-0.00018748
-0.000169921
-0.000152153
-0.000133927
-0.000115311
-9.65358e-05
-7.73266e-05
-5.77441e-05
-3.78018e-05
-1.76339e-05
2.94768e-06
2.37875e-05
4.49497e-05
6.63049e-05
8.80103e-05
0.000109895
0.000132066
0.000154384
0.000177026
0.000199803
0.000222845
0.000246038
0.000269581
0.00029323
0.000317178
0.000341384
0.000365991
0.000390693
0.000415895
0.000441576
0.00046766
0.00049398
0.00052134
0.000549389
0.000577778
0.000607124
0.000638439
0.000670254
0.000702764
0.000738247
0.000776351
0.000814155
0.000855089
0.000902352
0.000950784
0.000999137
0.00105753
0.00112395
0.00118684
0.00125577
0.00134335
0.00143341
0.001517
0.00161197
0.00171258
0.00185171
0.0020097
0.00144374
0.00034246
-0.000372097
-0.000426582
-0.000380141
-0.000357962
-0.000385912
-0.000405606
-0.000397076
-0.000364251
-0.000337725
-0.000356022
-0.000319592
-0.000279862
-0.000247201
-0.000196585
-0.000442145
-0.000841106
-0.00104835
-0.00102184
-0.000981389
-0.000908237
-0.000845422
-0.000801305
-0.000743264
-0.000678815
-0.0006308
-0.000589243
-0.000542001
-0.000499568
-0.000467147
-0.000436031
-0.000404624
-0.000378322
-0.000356006
-0.000333603
-0.000312223
-0.000293412
-0.000275456
-0.000257129
-0.000239458
-0.00022244
-0.000205163
-0.00018748
-0.000169921
-0.000152153
-0.000133927
-0.000115311
-9.65358e-05
-7.73266e-05
-5.77441e-05
-3.78018e-05
-1.76339e-05
2.94768e-06
2.37875e-05
4.49497e-05
6.63049e-05
8.80103e-05
0.000109895
0.000132066
0.000154384
0.000177026
0.000199803
0.000222845
0.000246038
0.000269581
0.00029323
0.000317178
0.000341384
0.000365991
0.000390693
0.000415895
0.000441576
0.00046766
0.00049398
0.00052134
0.000549389
0.000577778
0.000607124
0.000638439
0.000670254
0.000702764
0.000738247
0.000776351
0.000814155
0.000855089
0.000902352
0.000950784
0.000999137
0.00105268
0.00110505
0.00117717
0.00125743
0.00132158
0.00139449
0.00150123
0.0016039
0.0016688
0.00173397
0.00186874
0.00157764
0.000298326
-0.000407704
-0.0002878
-0.000369258
-0.00042863
-0.000418625
-0.000373082
-0.000358891
-0.000407678
-0.000391574
-0.000308015
-0.000307971
-0.000321286
-0.00025739
-0.000216827
-0.000498874
-0.000977118
-0.00110337
-0.0010156
-0.000952316
-0.000927277
-0.000869323
-0.000786656
-0.000732925
-0.000693917
-0.000636772
-0.000580244
-0.000542875
-0.00050802
-0.000467364
-0.000433526
-0.000408309
-0.000382271
-0.000355923
-0.000334408
-0.000315393
-0.000295328
-0.00027608
-0.000258788
-0.000241552
-0.000223594
-0.000206124
-0.000188932
-0.000171202
-0.000152986
-0.000134827
-0.000116322
-9.73262e-05
-7.79541e-05
-5.84285e-05
-3.84518e-05
-1.81448e-05
2.48833e-06
2.33104e-05
4.45285e-05
6.59569e-05
8.76776e-05
0.000109552
0.000131771
0.000154133
0.000176757
0.000199515
0.000222618
0.00024582
0.000269281
0.000292941
0.000316987
0.00034108
0.000365546
0.000390406
0.000415644
0.000440936
0.000467018
0.000493736