# vtk DataFile Version 3.0
fluid_state
ASCII
DATASET RECTILINEAR_GRID
DIMENSIONS 100 40 1
X_COORDINATES 100 float
0.5 1.5 2.5 3.5 4.5 5.5 6.5 7.5 8.5 9.5 10.5 11.5 12.5 13.5 14.5 15.5 16.5 17.5 18.5 19.5 20.5 21.5 22.5 23.5 24.5 25.5 26.5 27.5 28.5 29.5 30.5 31.5 32.5 33.5 34.5 35.5 36.5 37.5 38.5 39.5 40.5 41.5 42.5 43.5 44.5 45.5 46.5 47.5 48.5 49.5 50.5 51.5 52.5 53.5 54.5 55.5 56.5 57.5 58.5 59.5 60.5 61.5 62.5 63.5 64.5 65.5 66.5 67.5 68.5 69.5 70.5 71.5 72.5 73.5 74.5 75.5 76.5 77.5 78.5 79.5 80.5 81.5 82.5 83.5 84.5 85.5 86.5 87.5 88.5 89.5 90.5 91.5 92.5 93.5 94.5 95.5 96.5 97.5 98.5 99.5 
Y_COORDINATES 40 float
0.5 1.5 2.5 3.5 4.5 5.5 6.5 7.5 8.5 9.5 10.5 11.5 12.5 13.5 14.5 15.5 16.5 17.5 18.5 19.5 20.5 21.5 22.5 23.5 24.5 25.5 26.5 27.5 28.5 29.5 30.5 31.5 32.5 33.5 34.5 35.5 36.5 37.5 38.5 39.5 
Z_COORDINATES 1 float
0
POINT_DATA 4000
SCALARS density_difference float 1
LOOKUP_TABLE default
0.000758527
0.000766074
0.000772087
0.000775903
0.000774476
0.00076535
0.000748304
0.000729355
0.000700897
0.000651283
0.000599097
0.000542632
0.000456464
0.000362246
0.000268695
0.000151259
2.83286e-05
-9.09109e-05
-0.000222281
-0.000344215
-0.000452698
-0.00056823
-0.000661221
-0.00073085
-0.00080384
-0.000855669
-0.000883028
-0.000911992
-0.000926937
-0.000923229
-0.000919506
-0.000911382
-0.000892085
-0.000868187
-0.000845539
-0.000821216
-0.000790739
-0.000759199
-0.000731132
-0.000701579
-0.00066851
-0.000637191
-0.00060829
-0.000577827
-0.00054641
-0.000517118
-0.000488827
-0.000459608
-0.000430732
-0.000403383
-0.000376283
-0.000348891
-0.000322198
-0.00029636
-0.000270514
-0.000244762
-0.000219605
-0.000194833
-0.000170033
-0.00014546
-0.000121245
-9.71712e-05
-7.31073e-05
-4.92438e-05
-2.55367e-05
-1.88283e-06
2.17477e-05
4.52635e-05
6.87293e-05
9.21583e-05
0.000115594
0.000138984
0.000162338
0.000185668
0.000209065
0.000232407
0.000255675
0.000278986
0.000302395
0.000325622
0.000348765
0.000372095
0.000395403
0.00041829
0.000441261
0.00046454
0.000487335
0.000509536
0.000532294
0.000555075
0.000576485
0.000597655
0.000619883
0.000640773
0.000659502
0.000679187
0.000699169
0.000715314
0.000729815
0.000745702
0.00074934
0.000756847
0.000762178
0.000764041
0.000760291
0.000746631
0.000730691
0.000713657
0.000673852
0.000621608
0.000581084
0.00051572
0.000418939
0.000335987
0.000247582
0.000123746
-6.79313e-07
-0.000107872
-0.000229022
-0.000358021
-0.000460473
-0.000559402
-0.000656206
-0.000720914
-0.000782287
-0.000842523
-0.000864695
-0.000880298
-0.000906649
-0.000907953
-0.000892407
-0.000884978
-0.000875874
-0.000852784
-0.000824218
-0.000802288
-0.000779359
-0.000747666
-0.000716011
-0.000689846
-0.000661332
-0.000628841
-0.000598665
-0.000571235
-0.000541777
-0.000511426
-0.0004832
-0.000456003
-0.000427661
-0.000399731
-0.000373151
-0.000346857
-0.000320121
-0.000294115
-0.000268776
-0.000243504
-0.000218174
-0.000193471
-0.000168999
-0.000144583
-0.000120242
-9.63184e-05
-7.24001e-05
-4.85764e-05
-2.48218e-05
-1.304e-06
2.22998e-05
4.57793e-05
6.92446e-05
9.25917e-05
0.000116045
0.000139351
0.000162707
0.000186013
0.000209389
0.000232598
0.000255935
0.000279232
0.000302497
0.000325606
0.000348939
0.000372121
0.000395115
0.000418069
0.000441288
0.000464025
0.000486466
0.000509132
0.000531827
0.00055344
0.000574926
0.000596886
0.000617971
0.000637327
0.000657162
0.000676994
0.000694206
0.000709587
0.000725636
0.000739517
0.000743388
0.00075357
0.000757063
0.000753879
0.000749292
0.000741115
0.000723454
0.000691897
0.000656733
0.000620834
0.00055818
0.000478206
0.000412677
0.000321617
0.000200948
9.92015e-05
-1.24726e-05
-0.000145973
-0.000259372
-0.000372375
-0.000489771
-0.000574612
-0.000658959
-0.000742405
-0.000786222
-0.000824543
-0.000867977
-0.000881833
-0.000883675
-0.000890728
-0.000887355
-0.000871413
-0.000852771
-0.000837344
-0.000816285
-0.000787338
-0.000760735
-0.000737338
-0.00070842
-0.000677091
-0.000649396
-0.000622385
-0.00059203
-0.000562316
-0.000534909
-0.000507162
-0.0004781
-0.000450452
-0.000423804
-0.000396794
-0.000369596
-0.000343615
-0.000317876
-0.000292054
-0.000266451
-0.000241639
-0.000216755
-0.000192025
-0.00016752
-0.000143462
-0.000119258
-9.53055e-05
-7.1445e-05
-4.78413e-05
-2.4093e-05
-5.8725e-07
2.29475e-05
4.6302e-05
6.98044e-05
9.31078e-05
0.000116497
0.000139735
0.000163146
0.000186371
0.000209681
0.000232881
0.000256271
0.00027941
0.000302627
0.000325818
0.000349125
0.000372026
0.000395096
0.000418211
0.00044114
0.000463522
0.000486358
0.000509061
0.000530945
0.000552452
0.000574791
0.000596056
0.000615769
0.000635978
0.000656705
0.00067421
0.000690261
0.000707943
0.000723539
0.000733461
0.000744232
0.000750044
0.000753062
0.00075343
0.000747145
0.000736504
0.000718429
0.000685771
0.000653548
0.000612918
0.000540115
0.000467898
0.000400716
0.000291865
0.00017206
6.89757e-05
-4.91155e-05
-0.000189506
-0.000313394
-0.000416135
-0.000531946
-0.000629885
-0.0006985
-0.000773049
-0.000822905
-0.00084296
-0.000878152
-0.000899071
-0.000887148
-0.000883326
-0.000883411
-0.000868384
-0.000843289
-0.000822434
-0.000804848
-0.000779339
-0.00074838
-0.00072292
-0.000698393
-0.000668796
-0.000638473
-0.000611969
-0.000584731
-0.000555381
-0.000526892
-0.000500452
-0.000473076
-0.000445283
-0.000418485
-0.000392676
-0.000366183
-0.000340034
-0.000314558
-0.000289536
-0.000264128
-0.000239282
-0.000214735
-0.000190429
-0.000165934
-0.000141957
-0.000118002
-9.42364e-05
-7.03621e-05
-4.68769e-05
-2.3259e-05
1.60861e-07
2.36894e-05
4.69498e-05
7.04021e-05
9.36348e-05
0.000117015
0.000140209
0.000163585
0.000186724
0.000210071
0.000233255
0.000256552
0.000279624
0.000302973
0.000326081
0.000349196
0.000372177
0.000395442
0.000418228
0.000440971
0.000463757
0.000486604
0.000508573
0.000530669
0.000552912
0.000574496
0.000594848
0.000615824
0.000636434
0.000655035
0.000672604
0.00069113
0.000707214
0.00071999
0.00073263
0.00074643
0.000750131
0.000755933
0.000758987
0.00075091
0.00073546
0.000718751
0.000696173
0.000655059
0.000593425
0.000540597
0.000477671
0.000360358
0.000252942
0.000167482
1.8194e-05
-0.000130131
-0.000239338
-0.000378056
-0.000510108
-0.000603397
-0.000712103
-0.000784916
-0.000820945
-0.000881115
-0.000915583
-0.000904601
-0.000911837
-0.000920432
-0.000904632
-0.00087908
-0.000862691
-0.000849066
-0.00082087
-0.000788964
-0.000768092
-0.000744599
-0.000712484
-0.000683119
-0.000659302
-0.000631493
-0.000601074
-0.00057379
-0.000548285
-0.000520067
-0.000492075
-0.000466009
-0.000440204
-0.00041309
-0.000387043
-0.000361798
-0.000336484
-0.00031074
-0.000286013
-0.000261411
-0.000236844
-0.00021221
-0.000188292
-0.000164205
-0.000140307
-0.000116389
-9.29274e-05
-6.92149e-05
-4.57666e-05
-2.22287e-05
9.99409e-07
2.44889e-05
4.77066e-05
7.10804e-05
9.4212e-05
0.000117608
0.000140739
0.000164054
0.000187167
0.000210545
0.000233628
0.000256905
0.00028003
0.000303368
0.000326328
0.000349533
0.000372624
0.000395743
0.000418392
0.000441449
0.000464282
0.000486741
0.000508807
0.000531518
0.00055343
0.000574433
0.000595576
0.000617267
0.000636685
0.000655064
0.000674618
0.000693113
0.00070701
0.000721149
0.000736596
0.000749363
0.000761036
0.000766069
0.000761991
0.000759798
0.000751034
0.000727432
0.000700831
0.000661809
0.000601687
0.000543337
0.00045876
0.000341034
0.000238349
0.000113159
-4.73786e-05
-0.000195989
-0.000333894
-0.000476767
-0.000627495
-0.000727748
-0.00081419
-0.000899512
-0.000935936
-0.000957121
-0.000989895
-0.000977578
-0.000956856
-0.000952501
-0.000931749
-0.0009013
-0.000871741
-0.000846416
-0.00082202
-0.000789733
-0.000758329
-0.000732559
-0.000705588
-0.000674619
-0.000646197
-0.000620013
-0.000592626
-0.000563937
-0.000537394
-0.000511381
-0.000484711
-0.000457878
-0.000432577
-0.000407078
-0.000381446
-0.000356036
-0.000331585
-0.000306717
-0.000282096
-0.000257675
-0.000233806
-0.000209549
-0.000185707
-0.000161891
-0.000138417
-0.000114637
-9.12807e-05
-6.77827e-05
-4.45554e-05
-2.10733e-05
2.05193e-06
2.54159e-05
4.85146e-05
7.18637e-05
9.49285e-05
0.000118256
0.000141306
0.000164638
0.000187723
0.000211033
0.000234072
0.000257444
0.000280526
0.000303761
0.000326796
0.000350173
0.000373089
0.000396137
0.000419131
0.000442287
0.000464703
0.00048743
0.00051018
0.000532521
0.000553938
0.000576144
0.000597928
0.000618249
0.000638052
0.000659086
0.000677872
0.00069416
0.000711453
0.000728746
0.000739869
0.000761426
0.000773963
0.000777099
0.000776148
0.00077742
0.000768848
0.000745178
0.000712295
0.000675016
0.000628135
0.000540443
0.000427079
0.000351871
0.000221763
1.20548e-05
-0.000113247
-0.000252863
-0.000474672
-0.000626517
-0.000749638
-0.000892851
-0.000960965
-0.00102603
-0.00109871
-0.00107517
-0.00105037
-0.00107343
-0.00104667
-0.000991031
-0.000953542
-0.000934033
-0.000901186
-0.000850159
-0.000816989
-0.000794448
-0.000758762
-0.00072054
-0.000694293
-0.000668173
-0.000636063
-0.000606156
-0.000581528
-0.000554722
-0.000526297
-0.000500158
-0.000475847
-0.000449663
-0.000423764
-0.000399201
-0.00037508
-0.000349867
-0.000325499
-0.000301599
-0.000277782
-0.000253451
-0.000229921
-0.000206342
-0.000182875
-0.000159158
-0.000136033
-0.000112634
-8.94472e-05
-6.60624e-05
-4.30936e-05
-1.97878e-05
3.24824e-06
2.65082e-05
4.94547e-05
7.27445e-05
9.57423e-05
0.000118995
0.00014199
0.000165316
0.00018833
0.000211621
0.000234692
0.000258055
0.000281065
0.000304392
0.000327516
0.000350822
0.000373739
0.000397062
0.000420111
0.000443123
0.0004658
0.000489004
0.00051161
0.000533893
0.000556134
0.000578847
0.00060015
0.000621025
0.000642463
0.000663525
0.000681726
0.000700196
0.000719608
0.000735687
0.000747411
0.000778928
0.000784482
0.000794502
0.000806216
0.000798566
0.000782885
0.000776804
0.000747743
0.000691574
0.000638201
0.000557138
0.000445183
0.000326399
0.000156004
-1.34466e-05
-0.00018536
-0.000403093
-0.000594821
-0.000779052
-0.00092057
-0.00107467
-0.00117008
-0.00118661
-0.00121225
-0.00123365
-0.00118477
-0.00114868
-0.00110761
-0.00105726
-0.00101338
-0.000956298
-0.000912512
-0.000875535
-0.000829131
-0.000786797
-0.000754994
-0.000721427
-0.000685436
-0.000653901
-0.000626468
-0.000596998
-0.000567827
-0.000541402
-0.000516125
-0.000489375
-0.000463864
-0.000439559
-0.000415271
-0.000390264
-0.00036651
-0.000342912
-0.000319216
-0.000295285
-0.000272242
-0.000248881
-0.000225627
-0.000202269
-0.000179455
-0.000156218
-0.000133252
-0.000110124
-8.73482e-05
-6.41803e-05
-4.13351e-05
-1.82391e-05
4.57328e-06
2.77376e-05
5.0597e-05
7.3756e-05
9.66384e-05
0.000119867
0.000142818
0.000166062
0.000189032
0.000212374
0.000235422
0.00025872
0.000281793
0.000305253
0.00032831
0.000351605
0.000374799
0.000398268
0.000421137
0.000444403
0.00046767
0.000490801
0.000513219
0.000536486
0.000559484
0.000581542
0.000603311
0.000626483
0.000648021
0.000667807
0.000688881
0.000710827
0.00072777
0.000743689
0.000763454
0.000794566
0.000807645
0.000822555
0.000829524
0.000826232
0.000821937
0.000810664
0.000779508
0.000731286
0.000659896
0.000579839
0.000483585
0.000285696
9.26174e-05
-4.37346e-06
-0.000285419
-0.000573105
-0.000696944
-0.000937264
-0.00114861
-0.00123964
-0.00136778
-0.00140838
-0.00132611
-0.00135398
-0.00134659
-0.00123002
-0.00116028
-0.00111986
-0.00107159
-0.00099301
-0.000925736
-0.000890225
-0.000845746
-0.000789727
-0.000749412
-0.000717924
-0.000680485
-0.000643089
-0.000614027
-0.000586089
-0.000555925
-0.00052768
-0.000503229
-0.000477894
-0.000452087
-0.000427773
-0.000404934
-0.000380977
-0.000357326
-0.000334406
-0.000311942
-0.000288652
-0.000265912
-0.000243305
-0.000220847
-0.000197862
-0.000175401
-0.000152737
-0.000130209
-0.000107318
-8.48443e-05
-6.20267e-05
-3.94047e-05
-1.64735e-05
6.1334e-06
2.912e-05
5.18613e-05
7.49102e-05
9.76929e-05
0.000120849
0.000143725
0.000166927
0.000189896
0.000213206
0.000236212
0.000259579
0.000282722
0.000306138
0.000329251
0.000352784
0.000376039
0.000399466
0.000422666
0.000446333
0.000469536
0.000492842
0.000516112
0.000539758
0.000562578
0.000585591
0.000608829
0.000631962
0.000653748
0.000676151
0.000698806
0.000719989
0.000739276
0.000760064
0.000779722
0.000815467
0.000840435
0.000851805
0.000853053
0.000869653
0.000876216
0.00084236
0.000814572
0.000798228
0.000714381
0.000594937
0.000489776
0.000322567
0.000111439
-0.000141211
-0.000392486
-0.00054363
-0.000836445
-0.00113075
-0.00135458
-0.00142393
-0.00149648
-0.00158617
-0.00156702
-0.00144161
-0.00138086
-0.0013181
-0.00127416
-0.00117782
-0.00107421
-0.0010305
-0.000972984
-0.000894936
-0.000842304
-0.000803582
-0.000754935
-0.000706848
-0.000671947
-0.000639123
-0.000602927
-0.000570685
-0.00054427
-0.00051656
-0.000488624
-0.000463851
-0.000440818
-0.000416215
-0.000392568
-0.00037037
-0.000348268
-0.000325223
-0.000303198
-0.000281392
-0.000259399
-0.000236953
-0.00021521
-0.000193142
-0.000171046
-0.000148675
-0.000126724
-0.000104318
-8.20517e-05
-5.95141e-05
-3.72523e-05
-1.45584e-05
7.91854e-06
3.07024e-05
5.32518e-05
7.61982e-05
9.89092e-05
0.000121939
0.000144739
0.000167931
0.000190873
0.000214115
0.000237153
0.000260595
0.000283724
0.000307148
0.000330458
0.000354123
0.000377349
0.000400986
0.000424629
0.000448382
0.000471617
0.000495637
0.000519586
0.000543098
0.000566416
0.000591115
0.000614925
0.000637675
0.000661541
0.000686887
0.000709005
0.000730445
0.000755605
0.000779369
0.000795633
0.000845198
0.000865501
0.000883402
0.000902288
0.000914361
0.000911431
0.000905721
0.000890809
0.000839798
0.000769611
0.000673565
0.000509348
0.000364384
0.00016995
-0.000262078
-0.000452834
-0.00051618
-0.000922563
-0.00115232
-0.00142399
-0.00171567
-0.00174457
-0.00162559
-0.00167424
-0.00154166
-0.001442
-0.00141863
-0.00132009
-0.00121671
-0.0011148
-0.00104773
-0.000988369
-0.000913686
-0.000851976
-0.000804126
-0.000754626
-0.000705846
-0.000665457
-0.000629281
-0.000593413
-0.000559681
-0.000530649
-0.000503279
-0.000476204
-0.000450443
-0.000427206
-0.000404172
-0.000381208
-0.000358885
-0.000337702
-0.000316044
-0.000294491
-0.000273115
-0.00025215
-0.000230586
-0.00020922
-0.000187723
-0.000166367
-0.000144498
-0.000122864
-0.00010093
-7.90971e-05
-5.68489e-05
-3.48273e-05
-1.2439e-05
9.80944e-06
3.24194e-05
5.48247e-05
7.76058e-05
0.000100199
0.000123142
0.000145899
0.000169009
0.0001919
0.000215163
0.000238242
0.000261629
0.000284809
0.00030841
0.000331781
0.00035542
0.000378945
0.000402918
0.000426538
0.000450482
0.000474498
0.000498843
0.000522692
0.000547161
0.000571833
0.000596452
0.000620646
0.000646004
0.000671277
0.000695917
0.000720676
0.000746931
0.000771892
0.000795608
0.000820209
0.000874767
0.000893857
0.000923608
0.00095465
0.000958754
0.000960963
0.000988392
0.000969502
0.0008886
0.000849923
0.000789733
0.000581268
0.000372475
0.000212967
-6.67316e-05
-0.000450261
-0.000860027
-0.00082053
-0.000957299
-0.00130435
-0.00133716
-0.00164587
-0.00174411
-0.00152389
-0.00160541
-0.00161225
-0.00151312
-0.00129193
-0.00121969
-0.00118658
-0.00106557
-0.000973482
-0.000930974
-0.000872024
-0.000799648
-0.000748927
-0.000709384
-0.000661833
-0.000616725
-0.000583794
-0.000552128
-0.000517845
-0.000488373
-0.00046428
-0.000438824
-0.000413356
-0.000391062
-0.000370233
-0.00034798
-0.000326496
-0.000306241
-0.000285957
-0.000264786
-0.000244304
-0.000223898
-0.000203222
-0.000182044
-0.000161284
-0.000140154
-0.000118895
-9.72882e-05
-7.59092e-05
-5.40747e-05
-3.22673e-05
-1.0141e-05
1.18317e-05
3.42303e-05
5.65156e-05
7.91199e-05
0.000101581
0.000124438
0.000147139
0.000170153
0.000193029
0.000216297
0.000239367
0.000262748
0.000286044
0.000309718
0.000333125
0.000356918
0.000380728
0.000404813
0.000428584
0.000453006
0.000477492
0.000501966
0.000526335
0.000551863
0.000577121
0.000601988
0.000627663
0.000654948
0.000680691
0.000706187
0.000734588
0.000763674
0.000788439
0.000815374
0.000847864
0.000901736
0.000936983
0.000966606
0.000990386
0.00102055
0.00104565
0.0010425
0.00103097
0.00103122
0.00096412
0.00081767
0.000713889
0.000541229
0.000247503
0.000185143
-0.00032054
-0.00111745
-0.000501369
-0.000446123
-0.00102524
-0.000534546
-0.00097291
-0.00119849
-0.00101045
-0.00157663
-0.00169167
-0.00144455
-0.00136061
-0.00125237
-0.00115864
-0.0010759
-0.00100368
-0.000934078
-0.000864532
-0.000806178
-0.000754
-0.000702046
-0.000655231
-0.000613622
-0.000574645
-0.000539361
-0.000508097
-0.000478186
-0.000450527
-0.000425797
-0.000402476
-0.000379286
-0.000357737
-0.000337251
-0.000316855
-0.000296334
-0.000276662
-0.000256908
-0.000236963
-0.000216811
-0.000196962
-0.000176644
-0.000156217
-0.000135508
-0.000114868
-9.37341e-05
-7.2601e-05
-5.11352e-05
-2.96947e-05
-7.83047e-06
1.39716e-05
3.61239e-05
5.82159e-05
8.06787e-05
0.000103056
0.000125772
0.000148384
0.000171361
0.000194239
0.000217423
0.000240502
0.000263983
0.000287326
0.000310953
0.000334564
0.000358611
0.000382424
0.000406615
0.000430986
0.000455703
0.000480106
0.000505274
0.000530782
0.00055629
0.000581757
0.00060874
0.000635737
0.000662325
0.000690064
0.000719876
0.000748358
0.000776901
0.000808675
0.000841158
0.000870174
0.000932525
0.000975932
0.00100948
0.00103748
0.00108284
0.00111991
0.00111656
0.00112722
0.00115668
0.00107331
0.000932452
0.000883482
0.000733216
0.000400603
0.000131468
-0.000235651
-0.000585243
-0.000392272
-0.000274915
-0.000437154
-0.000470812
-0.000593736
-0.000476362
-0.000552931
-0.00106348
-0.00134831
-0.00136371
-0.00142977
-0.00128268
-0.00112406
-0.00108376
-0.00102164
-0.000926312
-0.000861371
-0.000815566
-0.000754886
-0.000693412
-0.000650191
-0.000611382
-0.000566995
-0.000527812
-0.000498355
-0.000469304
-0.000439111
-0.000413407
-0.000391624
-0.000368966
-0.000346629
-0.000326608
-0.000307495
-0.00028744
-0.000267881
-0.000248989
-0.000229946
-0.000210222
-0.0001908
-0.000171235
-0.00015137
-0.000131034
-0.000110817
-9.01981e-05
-6.93952e-05
-4.82236e-05
-2.70909e-05
-5.53309e-06
1.60821e-05
3.80251e-05
5.99392e-05
8.22416e-05
0.000104521
0.00012711
0.00014966
0.000172574
0.000195417
0.000218566
0.000241691
0.000265174
0.000288548
0.000312275
0.000336039
0.000360139
0.000384125
0.000408624
0.00043324
0.000458117
0.000483018
0.000508776
0.000534621
0.000560632
0.00058721
0.000615111
0.000642701
0.000670624
0.000700446
0.00073171
0.000761511
0.000792894
0.000828538
0.000863738
0.000895144
0.000966251
0.00100311
0.0010512
0.00110201
0.00113691
0.00117339
0.00122694
0.00124661
0.00121173
0.00121983
0.00123267
0.001001
0.000738435
0.000493524
1.61317e-06
-0.000236725
-0.000345372
-0.000508809
-0.000550454
-0.000354326
-0.000469389
-0.00041043
-0.000360003
-0.000398039
-0.000571257
-0.000841295
-0.00120411
-0.00129839
-0.00122376
-0.00117586
-0.0010904
-0.000992654
-0.000929931
-0.000875699
-0.000806182
-0.000746418
-0.000699461
-0.000648266
-0.000598671
-0.000560538
-0.000525037
-0.000488144
-0.000456888
-0.000431232
-0.000405133
-0.000379941
-0.000358431
-0.000338354
-0.000317509
-0.000297772
-0.000279314
-0.000260691
-0.000241532
-0.00022296
-0.000204371
-0.00018535
-0.000165952
-0.000146706
-0.00012702
-0.000107036
-8.67195e-05
-6.63679e-05
-4.55459e-05
-2.45793e-05
-3.28671e-06
1.80645e-05
3.98193e-05
6.16284e-05
8.37525e-05
0.000105897
0.000128402
0.000150917
0.000173722
0.000196524
0.000219698
0.000242844
0.000266258
0.000289728
0.00031361
0.00033739
0.000361508
0.000385864
0.000410603
0.000435163
0.000460407
0.000486118
0.000511953
0.000537827
0.000565186
0.000592883
0.000620298
0.000648958
0.000680051
0.000710299
0.000740681
0.000775144
0.000811499
0.000844744
0.00088159
0.000925498
0.000993706
0.00103777
0.00109071
0.00115039
0.00119775
0.00124037
0.00130732
0.00135686
0.0013477
0.00136179
0.0013805
0.00128223
0.000969415
0.000237037
-0.00032491
-0.000352121
-0.000441223
-0.000485399
-0.000435961
-0.000390042
-0.000464317
-0.000381594
-0.000350145
-0.000370724
-0.000394155
-0.00042348
-0.000740356
-0.00114386
-0.00125802
-0.0011694
-0.0010418
-0.000986138
-0.000946005
-0.000872295
-0.000796756
-0.00074555
-0.000698772
-0.000643847
-0.000593422
-0.000554451
-0.000518314
-0.000481408
-0.00044903
-0.00042236
-0.000396862
-0.000371935
-0.000349753
-0.000329788
-0.000309828
-0.000290307
-0.000271857
-0.000253844
-0.000235389
-0.000217068
-0.000198839
-0.000180416
-0.000161494
-0.000142521
-0.000123241
-0.000103676
-8.3675e-05
-6.35642e-05
-4.30561e-05
-2.23415e-05
-1.25947e-06
1.9921e-05
4.14773e-05
6.31469e-05
8.51371e-05
0.000107195
0.000129593
0.000152039
0.000174787
0.000197588
0.000220709
0.000243849
0.000267315
0.00029085
0.000314713
0.000338612
0.00036293
0.000387368
0.000412172
0.000437136
0.000462705
0.00048847
0.000514728
0.000541467
0.0005691
0.000597034
0.000625814
0.000655722
0.000686891
0.000718502
0.000751756
0.000787338
0.000824455
0.000861876
0.000902734
0.000948216
0.00101533
0.00107638
0.00112744
0.00117874
0.00125379
0.00132575
0.00137082
0.00142821
0.00151063
0.00151755
0.00146295
0.00158905
0.00118464
3.68912e-05
-0.000482595
-0.000440862
-0.000398977
-0.000370197
-0.000413974
-0.000474173
-0.000370576
-0.000359574
-0.000418465
-0.000371436
-0.000262496
-0.0002598
-0.000471671
-0.000950635
-0.00117933
-0.00110258
-0.00105797
-0.00100672
-0.000918753
-0.000851905
-0.000810974
-0.000751269
-0.000682973
-0.000636953
-0.000598105
-0.000549746
-0.000506851
-0.000476579
-0.000446284
-0.000414047
-0.000388001
-0.000366571
-0.000343844
-0.000321808
-0.000302993
-0.000284928
-0.000265885
-0.000247641
-0.00023029
-0.000212502
-0.000194124
-0.000176069
-0.000157847
-0.000139095
-0.000119943
-0.000100777
-8.11588e-05
-6.11822e-05
-4.0872e-05
-2.04308e-05
4.4802e-07
2.15333e-05
4.29248e-05
6.44396e-05
8.63261e-05
0.000108333
0.00013062
0.000152995
0.000175718
0.000198513
0.000221563
0.000244717
0.00026825
0.000291798
0.00031563
0.0003397
0.000364169
0.000388583
0.000413514
0.000438928
0.000464616
0.000490339
0.000517236
0.00054473
0.000572167
0.000600463
0.000631014
0.000661506
0.00069199
0.000725835
0.000762399
0.000796937
0.000834034
0.000878726
0.000923136
0.000963762
0.00103687
0.00109422
0.0011568
0.00122083
0.00129272
0.00137459
0.00144425
0.00150799
0.00160743
0.00166615
0.00165463
0.00171841
0.000707902
-0.000305656
-0.000333425
-0.000401499
-0.000410838
-0.000403611
-0.00041373
-0.000409557
-0.000366534
-0.000386319
-0.000354431
-0.00032256
-0.000287483
-0.000290331
-0.000301313
-0.000686303
-0.0011033
-0.00108194
-0.00105884
-0.000983197
-0.000911947
-0.00086033
-0.000803036
-0.000741198
-0.000686453
-0.000636605
-0.000589013
-0.000545713
-0.000506542
-0.000470826
-0.000439026
-0.000410468
-0.000384021
-0.000359997
-0.000338216
-0.000317712
-0.000298034
-0.000279463
-0.000261506
-0.00024372
-0.000226012
-0.000208511
-0.00019082
-0.000172902
-0.000154716
-0.000136353
-0.000117564
-9.8488e-05
-7.9043e-05
-5.93437e-05
-3.92235e-05
-1.88694e-05
1.84695e-06
2.27719e-05
4.40556e-05
6.5508e-05
8.72852e-05
0.000109205
0.000131439
0.000153798
0.00017645
0.000199206
0.000222278
0.000245455
0.000268923
0.000292516
0.000316477
0.00034055
0.000364975
0.000389649
0.00041478
0.000440076
0.000465948
0.000492309
0.000519228
0.000546543
0.000574954
0.000604138
0.000634065
0.000665132
0.000698098
0.000732036
0.000767472
0.000805584
0.000846236
0.000888411
0.000934248
0.000984122
0.00105226
0.00110462
0.00117673
0.00125699
0.00132113
0.00139403
0.00150076
0.00160344
0.00166833
0.00173349
0.00186826
0.00157722
0.000298135
-0.000407754
-0.000287855
-0.000369324
-0.000428698
-0.000418701
-0.000373171
-0.000358979
-0.000407773
-0.00039168
-0.000308119
-0.000308077
-0.000321406
-0.000257515
-0.000216943
-0.0004989
-0.000977024
-0.00110324
-0.00101546
-0.00095217
-0.000927119
-0.000869151
-0.000786469
-0.000732722
-0.000693698
-0.000636537
-0.000579991
-0.000542605
-0.000507735
-0.000467063
-0.00043321
-0.000407979
-0.000381929
-0.000355569
-0.000334044
-0.000315019
-0.000294947
-0.000275692
-0.000258395
-0.000241154
-0.000223194
-0.000205722
-0.000188531
-0.000170801
-0.000152588
-0.000134433
-0.000115933
-9.69424e-05
-7.75783e-05
-5.80606e-05
-3.80943e-05
-1.77976e-05
2.82282e-06
2.36324e-05
4.48354e-05
6.62492e-05
8.79526e-05
0.000109811
0.00013201
0.000154353
0.000176956
0.000199694
0.000222775
0.000245955
0.000269392
0.000293029
0.00031705
0.00034112
0.00036556
0.000390396
0.000415607
0.000440875
0.000466931
0.000493625
0.000520528
0.00054789
0.000576933
0.000606513
0.000636167
0.000667858
0.000702236
0.000736074
0.000771168
0.00081183
0.000854485
0.000894848
0.00094207
0.000999013
0.00105711
0.00112352
0.0011864
0.00125533
0.00134289
0.00143295
0.00151654
0.0016115
0.00171211
0.00185123
0.00200921
0.00144335
0.000342287
-0.000372137
-0.000426634
-0.000380204
-0.000358031
-0.00038599
-0.000405689
-0.000397167
-0.000364348
-0.000337822
-0.000356131
-0.000319706
-0.000279971
-0.00024732
-0.000196717
-0.000442217
-0.000841048
-0.00104822
-0.00102169
-0.000981238
-0.000908076
-0.000845247
-0.000801116
-0.00074306
-0.000678595
-0.000630563
-0.00058899
-0.000541731
-0.000499281
-0.000466845
-0.000435714
-0.000404293
-0.000377979
-0.000355651
-0.000333238
-0.000311849
-0.000293031
-0.000275067
-0.000256735
-0.00023906
-0.00022204
-0.000204762
-0.000187079
-0.00016952
-0.000151755
-0.000133532
-0.000114921
-9.61519e-05
-7.69507e-05
-5.73761e-05
-3.74441e-05
-1.72865e-05
3.28237e-06
2.41096e-05
4.52569e-05
6.65973e-05
8.82855e-05
0.000110153
0.000132305
0.000154605
0.000177226
0.000199982
0.000223001
0.000246173
0.000269692
0.000293319
0.000317242
0.000341424
0.000366005
0.000390683
0.000415858
0.000441515
0.000467573
0.000493868
0.000521202
0.000549227
0.000577591
0.000606914
0.000638205
0.000669998
0.000702485
0.000737948
0.000776031
0.000813817
0.000854731
0.000901979
0.000950394
0.000998733
0.00105711
0.00112352
0.0011864
0.00125533
0.00134289
0.00143295
0.00151654
0.0016115
0.00171211
0.00185123
0.00200921
0.00144335
0.000342287
-0.000372137
-0.000426634
-0.000380204
-0.000358031
-0.00038599
-0.000405689
-0.000397167
-0.000364348
-0.000337822
-0.000356131
-0.000319706
-0.000279971
-0.00024732
-0.000196717
-0.000442217
-0.000841048
-0.00104822
-0.00102169
-0.000981238
-0.000908076
-0.000845247
-0.000801116
-0.00074306
-0.000678595
-0.000630563
-0.00058899
-0.000541731
-0.000499281
-0.000466845
-0.000435714
-0.000404293
-0.000377979
-0.000355651
-0.000333238
-0.000311849
-0.000293031
-0.000275067
-0.000256735
-0.00023906
-0.00022204
-0.000204762
-0.000187079
-0.00016952
-0.000151755
-0.000133532
-0.000114921
-9.61519e-05
-7.69507e-05
-5.73761e-05
-3.74441e-05
-1.72865e-05
3.28237e-06
2.41096e-05
4.52569e-05
6.65973e-05
8.82855e-05
0.000110153
0.000132305
0.000154605
0.000177226
0.000199982
0.000223001
0.000246173
0.000269692
0.000293319
0.000317242
0.000341424
0.000366005
0.000390683
0.000415858
0.000441515
0.000467573
0.000493868
0.000521202
0.000549227
0.000577591
0.000606914
0.000638205
0.000669998
0.000702485
0.000737948
0.000776031
0.000813817
0.000854731
0.000901979
0.000950394
0.000998733
0.00105226
0.00110462
0.00117673
0.00125699
0.00132113
0.00139403
0.00150076
0.00160344
0.00166833
0.00173349
0.00186826
0.00157722
0.000298135
-0.000407754
-0.000287855
-0.000369324
-0.000428698
-0.000418701
-0.000373171
-0.000358979
-0.000407773
-0.00039168
-0.000308119
-0.000308077
-0.000321406
-0.000257515
-0.000216943
-0.0004989
-0.000977024
-0.00110324
-0.00101546
-0.00095217
-0.000927119
-0.000869151
-0.000786469
-0.000732722
-0.000693698
-0.000636537
-0.000579991
-0.000542605
-0.000507735
-0.000467063
-0.00043321
-0.000407979
-0.000381929
-0.000355569
-0.000334044
-0.000315019
-0.000294947
-0.000275692
-0.000258395
-0.000241154
-0.000223194
-0.000205722
-0.000188531
-0.000170801
-0.000152588
-0.000134433
-0.000115933
-9.69424e-05
-7.75783e-05
-5.80606e-05
-3.80943e-05
-1.77976e-05
2.82282e-06
2.36324e-05
4.48354e-05
6.62492e-05
8.79526e-05
0.000109811
0.00013201
0.000154353
0.000176956
0.000199694
0.000222775
0.000245955
0.000269392
0.000293029
0.00031705
0.00034112
0.00036556
0.000390396
0.000415607
0.000440875
0.000466931