# vtk DataFile Version 3.0
fluid_state
ASCII
DATASET RECTILINEAR_GRID
DIMENSIONS 100 40 1
X_COORDINATES 100 float
0.5 1.5 2.5 3.5 4.5 5.5 6.5 7.5 8.5 9.5 10.5 11.5 12.5 13.5 14.5 15.5 16.5 17.5 18.5 19.5 20.5 21.5 22.5 23.5 24.5 25.5 26.5 27.5 28.5 29.5 30.5 31.5 32.5 33.5 34.5 35.5 36.5 37.5 38.5 39.5 40.5 41.5 42.5 43.5 44.5 45.5 46.5 47.5 48.5 49.5 50.5 51.5 52.5 53.5 54.5 55.5 56.5 57.5 58.5 59.5 60.5 61.5 62.5 63.5 64.5 65.5 66.5 67.5 68.5 69.5 70.5 71.5 72.5 73.5 74.5 75.5 76.5 77.5 78.5 79.5 80.5 81.5 82.5 83.5 84.5 85.5 86.5 87.5 88.5 89.5 90.5 91.5 92.5 93.5 94.5 95.5 96.5 97.5 98.5 99.5 
Y_COORDINATES 40 float
0.5 1.5 2.5 3.5 4.5 5.5 6.5 7.5 8.5 9.5 10.5 11.5 12.5 13.5 14.5 15.5 16.5 17.5 18.5 19.5 20.5 21.5 22.5 23.5 24.5 25.5 26.5 27.5 28.5 29.5 30.5 31.5 32.5 33.5 34.5 35.5 36.5 37.5 38.5 39.5 
Z_COORDINATES 1 float
0
POINT_DATA 4000
SCALARS density_difference float 1
LOOKUP_TABLE default
0.000755229
0.000762307
0.000767856
0.000771212
0.000769366
0.000759835
0.000742401
0.000723087
0.000694312
0.000644412
0.000591964
0.00053527
0.000448947
0.000354593
0.000260942
0.000143465
2.05324e-05
-9.86867e-05
-0.000229982
-0.000351839
-0.000460213
-0.000575598
-0.000668449
-0.000737935
-0.000810737
-0.000862391
-0.000889564
-0.000918316
-0.000933044
-0.000929114
-0.000925129
-0.000916738
-0.000897171
-0.000872972
-0.000849994
-0.000825346
-0.000794523
-0.000762609
-0.000734157
-0.000704218
-0.000670739
-0.000638999
-0.00060967
-0.000578776
-0.000546913
-0.000517174
-0.000488434
-0.000458767
-0.00042944
-0.000401647
-0.000374105
-0.00034628
-0.00031916
-0.00029291
-0.000266661
-0.000240522
-0.000214992
-0.000189869
-0.000164733
-0.000139849
-0.000115341
-9.10018e-05
-6.66945e-05
-4.26169e-05
-1.87197e-05
5.09287e-06
2.88563e-05
5.24721e-05
7.6011e-05
9.94791e-05
0.000122927
0.000146293
0.000169597
0.000192842
0.000216126
0.000239322
0.000262418
0.000285523
0.000308701
0.000331667
0.000354525
0.000377541
0.000400514
0.000423039
0.000445631
0.000468506
0.000490882
0.000512645
0.000534951
0.000557262
0.000578197
0.000598878
0.000620609
0.000640993
0.000659223
0.000678396
0.000697865
0.000713506
0.000727512
0.000742891
0.000746076
0.000753095
0.000757968
0.000759382
0.000755225
0.00074114
0.000724832
0.000707435
0.000667325
0.000614781
0.000574005
0.000508418
0.000411498
0.000328384
0.000239892
0.000116012
-8.39856e-06
-0.000115602
-0.00023668
-0.000365592
-0.000467931
-0.000566756
-0.000663395
-0.000727977
-0.000789163
-0.00084923
-0.000871216
-0.000886631
-0.000912735
-0.000913832
-0.000898038
-0.000890342
-0.00088094
-0.000857578
-0.000828682
-0.000806418
-0.000783135
-0.000751093
-0.000719039
-0.000692488
-0.000663563
-0.000630664
-0.000600048
-0.000572194
-0.000542286
-0.000511497
-0.000482813
-0.000455176
-0.000426378
-0.000398012
-0.000370983
-0.000344265
-0.000317096
-0.000290685
-0.000264937
-0.000239287
-0.000213578
-0.000188531
-0.000163717
-0.000138998
-0.000114358
-9.01769e-05
-6.60087e-05
-4.19788e-05
-1.80276e-05
5.64126e-06
2.93846e-05
5.29566e-05
7.65018e-05
9.98809e-05
0.000123352
0.000146628
0.000169941
0.000193155
0.000216426
0.000239483
0.000262654
0.000285739
0.000308781
0.000331623
0.000354679
0.000377541
0.000400209
0.000422795
0.000445643
0.000467971
0.000490002
0.000512223
0.000534475
0.000555616
0.000576636
0.000598097
0.000618697
0.000637547
0.000656886
0.000676198
0.000692918
0.000707789
0.000723341
0.000736717
0.000740142
0.000749826
0.000752885
0.000749253
0.000744248
0.000735648
0.000717639
0.000685717
0.000650243
0.000614034
0.000551165
0.000470969
0.000405267
0.000314064
0.000193357
9.15235e-05
-2.01372e-05
-0.000153616
-0.000266945
-0.000379884
-0.000497142
-0.00058191
-0.000666085
-0.000749398
-0.000793054
-0.000831225
-0.000874441
-0.000888139
-0.00088975
-0.000896585
-0.000892955
-0.000876785
-0.000857829
-0.000842125
-0.000820744
-0.000791482
-0.000764503
-0.000740766
-0.000711455
-0.000679746
-0.000651626
-0.000624219
-0.000593421
-0.000563287
-0.000535424
-0.000507249
-0.000477723
-0.000449641
-0.000422531
-0.000395092
-0.00036744
-0.000341042
-0.000314864
-0.000288645
-0.000262627
-0.000237443
-0.000212175
-0.000187108
-0.000162256
-0.000137901
-0.000113393
-8.91889e-05
-6.50732e-05
-4.12692e-05
-1.7319e-05
6.33179e-06
3.00115e-05
5.34529e-05
7.70407e-05
0.00010037
0.000123783
0.000146986
0.00017036
0.000193488
0.000216698
0.000239741
0.000262972
0.000285895
0.000308895
0.000331814
0.00035485
0.000377427
0.000400176
0.000422921
0.000445484
0.000467454
0.000489887
0.000512141
0.000533589
0.000554621
0.000576497
0.000597263
0.000616501
0.000636197
0.000656432
0.000673422
0.000688987
0.000706146
0.000721258
0.000730683
0.000740991
0.000746322
0.000748912
0.000748808
0.000742123
0.000731077
0.000712644
0.000679612
0.000647102
0.000606168
0.000533152
0.000460704
0.000393371
0.000284395
0.000164546
6.13807e-05
-5.66827e-05
-0.000197044
-0.000320836
-0.000423547
-0.000539212
-0.000637055
-0.000705526
-0.000779959
-0.000829646
-0.000849583
-0.000884557
-0.000905319
-0.000893188
-0.00088917
-0.000888973
-0.000873732
-0.000848347
-0.00082721
-0.000809285
-0.000783487
-0.000752153
-0.000726348
-0.000701424
-0.000671464
-0.000640709
-0.000613811
-0.000586127
-0.000556366
-0.000527414
-0.000500552
-0.000472708
-0.000444489
-0.000417223
-0.00039099
-0.000364039
-0.000337478
-0.000311559
-0.000286145
-0.000260317
-0.000235106
-0.00021017
-0.000185532
-0.000160685
-0.000136417
-0.000112153
-8.81413e-05
-6.40079e-05
-4.03273e-05
-1.65033e-05
7.0569e-06
3.07345e-05
5.40773e-05
7.76191e-05
0.000100874
0.000124283
0.000147437
0.000170779
0.000193817
0.00021707
0.000240093
0.000263234
0.000286087
0.000309223
0.000332056
0.000354905
0.000377558
0.000400508
0.00042292
0.000445303
0.000467674
0.000490122
0.00051164
0.000533306
0.000555068
0.000576197
0.000596051
0.000616553
0.000636646
0.000654767
0.000671819
0.000689856
0.000705421
0.000717728
0.000729858
0.000743207
0.000746428
0.000751788
0.000754375
0.00074592
0.000730049
0.000712977
0.000690037
0.00064865
0.000586715
0.000533664
0.00047051
0.000353112
0.000245557
0.000160024
1.07332e-05
-0.000137526
-0.000246748
-0.000385336
-0.000517321
-0.000610485
-0.000719083
-0.000791764
-0.000827717
-0.000887694
-0.000922062
-0.000910919
-0.000918003
-0.000926369
-0.00091042
-0.000884609
-0.00086799
-0.00085408
-0.000825639
-0.000793384
-0.000772219
-0.000748365
-0.000715918
-0.000686144
-0.000661971
-0.000633735
-0.000602927
-0.000575192
-0.000549284
-0.0005206
-0.000492192
-0.000465653
-0.000439427
-0.000411841
-0.000385377
-0.000359669
-0.000333948
-0.000307757
-0.000282642
-0.000257616
-0.000232689
-0.000207662
-0.000183416
-0.000158974
-0.000134789
-0.000110558
-8.68545e-05
-6.28786e-05
-3.92393e-05
-1.54913e-05
7.8731e-06
3.15157e-05
5.48117e-05
7.82792e-05
0.000101429
0.000124858
0.000147945
0.000171231
0.00019424
0.000217527
0.000240445
0.000263572
0.000286473
0.000309605
0.000332286
0.000355229
0.00037799
0.000400798
0.000423071
0.000445772
0.000468186
0.000490252
0.000511865
0.00053415
0.00055558
0.000576135
0.000596774
0.000617995
0.000636897
0.000654803
0.00067383
0.000691845
0.000705228
0.000718895
0.000733824
0.000746155
0.000757324
0.000761929
0.000757409
0.00075482
0.000745617
0.000721695
0.000694739
0.000655421
0.00059501
0.000536473
0.000451684
0.000333869
0.00023105
0.000105862
-5.46744e-05
-0.000203213
-0.000341091
-0.000483835
-0.000634455
-0.000734583
-0.000820966
-0.000906131
-0.0009425
-0.00096354
-0.000996221
-0.000983758
-0.000962938
-0.000958356
-0.000937451
-0.000906782
-0.000877016
-0.000851383
-0.00082676
-0.000794148
-0.000762447
-0.000736306
-0.000709024
-0.00067765
-0.00064887
-0.000622257
-0.000594493
-0.00056535
-0.000538407
-0.000511927
-0.000484846
-0.000457537
-0.000431819
-0.000405846
-0.000379801
-0.000353923
-0.000329069
-0.000303751
-0.000278746
-0.000253898
-0.000229672
-0.000205018
-0.000180853
-0.000156677
-0.000132919
-0.000108824
-8.52293e-05
-6.14647e-05
-3.80497e-05
-1.43544e-05
8.90365e-06
3.2424e-05
5.55976e-05
7.90435e-05
0.000102123
0.000125487
0.00014849
0.000171797
0.000194774
0.000217996
0.000240868
0.000264093
0.000286949
0.00030998
0.000332734
0.000355853
0.000378436
0.000401178
0.000423791
0.000446596
0.000468592
0.00049093
0.000513224
0.000535143
0.000556078
0.000577837
0.000599114
0.000618973
0.00063826
0.000658817
0.000677079
0.000692898
0.000709668
0.000726487
0.000737105
0.000758209
0.000770248
0.000772974
0.000771561
0.000772427
0.000763445
0.000739458
0.000706195
0.000668641
0.000621488
0.000533622
0.000420078
0.000344759
0.000214574
4.9803e-06
-0.000120379
-0.000259902
-0.000481547
-0.000633266
-0.000756312
-0.000899351
-0.000967442
-0.00103235
-0.00110497
-0.00108137
-0.00105653
-0.00107941
-0.00105258
-0.000996796
-0.000959152
-0.000939404
-0.000906404
-0.000855089
-0.000821673
-0.000798822
-0.000762869
-0.000724272
-0.000697713
-0.0006712
-0.000638743
-0.000608405
-0.000583404
-0.000556148
-0.000527328
-0.000500721
-0.000476002
-0.000449342
-0.000423029
-0.00039799
-0.000373457
-0.000347776
-0.000323008
-0.000298655
-0.000274456
-0.000249696
-0.000225811
-0.000201832
-0.000178044
-0.000153965
-0.000130558
-0.000106841
-8.34181e-05
-5.97642e-05
-3.66098e-05
-1.30882e-05
1.00786e-05
3.34975e-05
5.65169e-05
7.9906e-05
0.000102917
0.000126208
0.000149154
0.000172457
0.000195362
0.000218569
0.000241469
0.000264689
0.000287471
0.000310597
0.000333438
0.000356489
0.000379072
0.000402091
0.000424759
0.000447423
0.000469678
0.000492495
0.000514644
0.000536509
0.000558265
0.000580534
0.000601332
0.000621748
0.000642664
0.000663255
0.000680934
0.000698932
0.000717815
0.000733433
0.00074465
0.000775699
0.000780777
0.000790372
0.000801603
0.000793585
0.00077751
0.000771064
0.000741639
0.000685261
0.000631598
0.000550344
0.000438254
0.000319427
0.000149002
-2.03807e-05
-0.000192258
-0.000409779
-0.000601404
-0.000785436
-0.000926888
-0.0010808
-0.00117616
-0.00119264
-0.00121828
-0.0012396
-0.00119073
-0.00115454
-0.0011134
-0.00106291
-0.00101893
-0.000961604
-0.000917656
-0.000880436
-0.000833797
-0.000791134
-0.000759077
-0.000725157
-0.000688852
-0.000656923
-0.000629153
-0.000599259
-0.000569717
-0.000542843
-0.000517176
-0.000489959
-0.000464042
-0.000439261
-0.000414561
-0.000389078
-0.000364913
-0.000340846
-0.00031675
-0.000292365
-0.000268941
-0.000245149
-0.00022154
-0.000197782
-0.000174646
-0.000151046
-0.000127799
-0.000104352
-8.13403e-05
-5.7902e-05
-3.48721e-05
-1.15591e-05
1.13832e-05
3.47076e-05
5.76388e-05
8.08985e-05
0.000103793
0.000127061
0.000149962
0.000173184
0.000196044
0.000219303
0.00024218
0.000265335
0.00028818
0.00031144
0.000334213
0.000357256
0.000380114
0.00040328
0.000425768
0.000448688
0.000471532
0.000494278
0.000516239
0.00053909
0.000561601
0.000583218
0.000604482
0.000627193
0.00064821
0.000667531
0.000688078
0.000709548
0.000725972
0.000741434
0.000760677
0.000791333
0.000803918
0.000818392
0.000824905
0.000821245
0.000816512
0.000804898
0.000773426
0.000724949
0.00065327
0.000573097
0.000476704
0.000278841
8.57984e-05
-1.11832e-05
-0.000291994
-0.000579386
-0.000703254
-0.000943243
-0.00115446
-0.00124538
-0.00137345
-0.00141408
-0.00133191
-0.00135969
-0.00135231
-0.00123574
-0.00116597
-0.00112537
-0.00107703
-0.000998277
-0.000930803
-0.000895036
-0.00085037
-0.000794037
-0.000753451
-0.000721622
-0.000683889
-0.000646105
-0.000616706
-0.000588354
-0.000557825
-0.000529137
-0.000504297
-0.0004785
-0.000452289
-0.000427503
-0.000404251
-0.000379819
-0.000355758
-0.000332368
-0.000309504
-0.00028576
-0.000262638
-0.0002396
-0.000216786
-0.0001934
-0.000170617
-0.000147589
-0.000124779
-0.000101568
-7.88583e-05
-5.57697e-05
-3.29625e-05
-9.81377e-06
1.29235e-05
3.60708e-05
5.88843e-05
8.20343e-05
0.000104829
0.000128025
0.000150853
0.000174033
0.000196892
0.000220119
0.000242955
0.00026618
0.000289095
0.000312311
0.000335141
0.000358422
0.000381341
0.000404467
0.000427286
0.000450607
0.000473388
0.00049631
0.000519122
0.000542352
0.000564687
0.000587259
0.000609989
0.000632664
0.000653931
0.000675865
0.000697991
0.000718704
0.00073747
0.00075779
0.000776931
0.000812217
0.000836674
0.000847626
0.000848433
0.000864623
0.000870751
0.000836617
0.000808487
0.000791827
0.000707781
0.000588291
0.000482943
0.00031578
0.000104775
-0.000147658
-0.000398738
-0.000549786
-0.000842346
-0.00113627
-0.00135997
-0.00142933
-0.00150193
-0.00159158
-0.00157252
-0.00144721
-0.00138653
-0.00132371
-0.00127977
-0.00118331
-0.00107958
-0.00103571
-0.000978044
-0.000899716
-0.000846875
-0.000807872
-0.000758961
-0.00071053
-0.000675335
-0.000642138
-0.000605608
-0.000572959
-0.000546181
-0.000518036
-0.000489712
-0.000464482
-0.000441045
-0.000415973
-0.000391914
-0.000369242
-0.000346729
-0.000323217
-0.000300789
-0.00027853
-0.000256152
-0.000233276
-0.000211175
-0.000188706
-0.000166286
-0.000143552
-0.000121316
-9.85911e-05
-7.60867e-05
-5.32787e-05
-3.08299e-05
-7.91906e-06
1.46896e-05
3.76334e-05
6.02565e-05
8.33033e-05
0.000106028
0.000129097
0.000151849
0.000175019
0.000197851
0.00022101
0.00024388
0.000267179
0.00029008
0.000313305
0.000336332
0.000359744
0.000382636
0.000405971
0.000429233
0.00045264
0.000475454
0.00049909
0.000522581
0.000545678
0.000568511
0.000592767
0.00061607
0.000638363
0.000661709
0.000686583
0.000708175
0.000729149
0.000753779
0.000777073
0.000792832
0.000841909
0.00086172
0.000879199
0.000897606
0.000909281
0.00090596
0.000899914
0.000884618
0.000833401
0.000763031
0.000666824
0.000502557
0.000357738
0.00016336
-0.000268192
-0.000458825
-0.000522204
-0.000928071
-0.00115769
-0.00142915
-0.00172063
-0.00174972
-0.00163085
-0.00167968
-0.00154719
-0.0014476
-0.00142411
-0.00132557
-0.00122219
-0.00112013
-0.00105283
-0.000993355
-0.000918446
-0.000856491
-0.000808356
-0.000758609
-0.000709503
-0.000668814
-0.000632278
-0.000596082
-0.000561954
-0.000532561
-0.000504766
-0.000477305
-0.000451097
-0.000427454
-0.000403958
-0.00038058
-0.000357789
-0.000336192
-0.000314069
-0.000292111
-0.000270284
-0.000248931
-0.000226938
-0.000205211
-0.000183315
-0.000161631
-0.000139401
-0.000117479
-9.52268e-05
-7.3153e-05
-5.06357e-05
-2.84243e-05
-5.82029e-06
1.65626e-05
3.93312e-05
6.18125e-05
8.46929e-05
0.000107302
0.000130283
0.000152994
0.00017608
0.000198864
0.000222043
0.000244955
0.000268199
0.000291152
0.000314553
0.000337643
0.000361028
0.000384221
0.000407891
0.000431132
0.00045473
0.000478324
0.000502284
0.000525678
0.00054973
0.000573917
0.000598094
0.000621782
0.000646679
0.000671431
0.000695601
0.000719834
0.000745612
0.000770046
0.000793298
0.000817382
0.000871448
0.000890054
0.000919361
0.000949918
0.00095365
0.000955453
0.000982494
0.000963275
0.00088222
0.000843256
0.000782906
0.000574599
0.000365946
0.000206392
-7.28602e-05
-0.000455971
-0.000865354
-0.000826102
-0.00096224
-0.00130848
-0.00134141
-0.00165039
-0.00174919
-0.00152938
-0.0016109
-0.00161774
-0.00151868
-0.00129739
-0.00122505
-0.00119192
-0.00107071
-0.000978412
-0.000935687
-0.00087652
-0.000803863
-0.000752876
-0.000713019
-0.000665174
-0.000619716
-0.000586454
-0.000554404
-0.000519762
-0.000489875
-0.000465394
-0.000439499
-0.000413626
-0.000390876
-0.00036963
-0.000346915
-0.000325013
-0.000304298
-0.000283604
-0.000261986
-0.000241112
-0.00022028
-0.000199237
-0.000177664
-0.000156572
-0.000135082
-0.000113532
-9.16086e-05
-6.99847e-05
-4.7883e-05
-2.58825e-05
-3.54255e-06
1.85678e-05
4.1123e-05
6.34872e-05
8.61888e-05
0.000108668
0.000131561
0.000154219
0.000177207
0.00019998
0.000223161
0.000246066
0.000269301
0.000292374
0.000315846
0.000338974
0.000362511
0.00038599
0.00040977
0.000433165
0.000457238
0.000481304
0.000505392
0.000529307
0.000554416
0.00057919
0.000603614
0.000628784
0.000655605
0.000680829
0.000705854
0.000733725
0.000762331
0.000786575
0.00081304
0.000845004
0.000898391
0.000933129
0.000962304
0.000985625
0.00101538
0.00104003
0.00103656
0.00102471
0.00102465
0.000957333
0.000810956
0.000707146
0.000534486
0.000241133
0.000178927
-0.00032583
-0.00112104
-0.000505384
-0.000449666
-0.00102755
-0.000537575
-0.000975956
-0.00120192
-0.00101487
-0.0015815
-0.00169694
-0.00145008
-0.00136617
-0.00125766
-0.00116385
-0.00108101
-0.00100857
-0.000938729
-0.000868968
-0.000810345
-0.0007579
-0.000705643
-0.000658534
-0.000616587
-0.000577283
-0.000541627
-0.000510004
-0.00047969
-0.000451646
-0.000426486
-0.000402758
-0.000379122
-0.000357154
-0.000336212
-0.000315395
-0.00029442
-0.000274334
-0.000254136
-0.000233796
-0.000213221
-0.000193002
-0.00017229
-0.000151526
-0.000130461
-0.000109524
-8.80772e-05
-6.66951e-05
-4.49645e-05
-2.33268e-05
-1.2513e-06
2.06921e-05
4.29988e-05
6.51732e-05
8.77309e-05
0.00011013
0.000132879
0.000155451
0.000178401
0.000201178
0.000224274
0.00024719
0.000270523
0.000293645
0.000317068
0.000340403
0.000364192
0.000387677
0.000411562
0.000435558
0.000459923
0.000483911
0.000508689
0.000533745
0.000558831
0.000583818
0.000610353
0.000636846
0.00066297
0.000690191
0.000719523
0.000747478
0.000775544
0.000806789
0.00083879
0.000867291
0.000929144
0.000972036
0.00100514
0.00103267
0.0010776
0.00111422
0.00111056
0.00112085
0.00115
0.0010665
0.000925659
0.000876519
0.000726467
0.000394371
0.00012598
-0.000239579
-0.000587826
-0.000394616
-0.000277242
-0.000439064
-0.000472655
-0.000595636
-0.000478529
-0.000555604
-0.0010669
-0.001353
-0.00136901
-0.00143518
-0.00128809
-0.00112926
-0.00108879
-0.0010265
-0.000930953
-0.000865771
-0.000819698
-0.000758756
-0.00069699
-0.00065347
-0.00061433
-0.000569618
-0.000530075
-0.000500258
-0.000470812
-0.000440235
-0.000414111
-0.000391918
-0.00036882
-0.000346064
-0.000325593
-0.000306055
-0.000285551
-0.000265575
-0.000246244
-0.0002268
-0.000206657
-0.000186861
-0.000166905
-0.000146699
-0.000126008
-0.000105492
-8.4562e-05
-6.35059e-05
-4.20723e-05
-2.07384e-05
1.02805e-06
2.27884e-05
4.4883e-05
6.68832e-05
8.92777e-05
0.000111582
0.000134203
0.000156716
0.0001796
0.000202343
0.000225402
0.000248368
0.0002717
0.000294857
0.000318376
0.000341866
0.000365707
0.000389367
0.000413557
0.000437801
0.000462324
0.000486811
0.000512177
0.000537572
0.000563159
0.000589258
0.000616709
0.000643796
0.000671253
0.000700556
0.000731338
0.000760615
0.000791514
0.000826628
0.000861344
0.000892236
0.000962828
0.000999183
0.00104681
0.00109713
0.00113161
0.00116766
0.0012208
0.00124011
0.00120502
0.00121286
0.00122552
0.000994043
0.00073189
0.000487707
-2.39242e-06
-0.000239444
-0.000347688
-0.000510945
-0.000552342
-0.000356536
-0.00047142
-0.000412408
-0.000362156
-0.000400084
-0.000573483
-0.000844514
-0.00120879
-0.00130368
-0.00122909
-0.00118102
-0.00109538
-0.000997463
-0.000934507
-0.000880039
-0.000810277
-0.000750244
-0.000702991
-0.000651507
-0.000601595
-0.000563134
-0.000527279
-0.000490034
-0.000458392
-0.00043235
-0.000405839
-0.000380241
-0.000358297
-0.000337799
-0.00031651
-0.000296348
-0.000277444
-0.000258402
-0.000238808
-0.000219833
-0.000200827
-0.000181429
-0.000161642
-0.000142051
-0.000122014
-0.000101727
-8.11019e-05
-6.04933e-05
-3.94117e-05
-1.82403e-05
3.25839e-06
2.47584e-05
4.66623e-05
6.8561e-05
9.07747e-05
0.000112948
0.000135481
0.000157963
0.000180735
0.000203442
0.000226522
0.000249512
0.000272774
0.000296028
0.000319701
0.00034321
0.000367066
0.0003911
0.000415526
0.000439716
0.000464605
0.000489904
0.000515344
0.000540771
0.000567704
0.000594922
0.000621886
0.000650047
0.000680665
0.000710397
0.000740297
0.000774234
0.000810095
0.000842815
0.000879176
0.000922556
0.000990256
0.00103382
0.00108628
0.00114546
0.00119239
0.00123457
0.0013011
0.00135025
0.00134086
0.00135469
0.00137322
0.00127502
0.000962938
0.000232629
-0.000327597
-0.000354597
-0.000443377
-0.000487434
-0.000438101
-0.000392267
-0.000466447
-0.000383752
-0.000352197
-0.00037274
-0.000396282
-0.000425803
-0.000743905
-0.00114874
-0.00126324
-0.00117452
-0.00104675
-0.000990906
-0.000950553
-0.000876611
-0.000800821
-0.000749351
-0.000702285
-0.000647068
-0.00059633
-0.000557035
-0.000520548
-0.000483289
-0.000450532
-0.000423478
-0.000397572
-0.000372239
-0.000349629
-0.000329242
-0.000308842
-0.000288895
-0.000270003
-0.000251569
-0.000232682
-0.000213955
-0.000195313
-0.000176509
-0.000157201
-0.000137881
-0.000118252
-9.83803e-05
-7.80731e-05
-5.77021e-05
-3.69367e-05
-1.60141e-05
5.27174e-06
2.66041e-05
4.83072e-05
7.00694e-05
9.21469e-05
0.000114236
0.00013666
0.000159075
0.000181789
0.000204497
0.000227523
0.000250509
0.00027382
0.000297143
0.000320793
0.000344425
0.000368477
0.000392595
0.000417085
0.000441682
0.000466892
0.000492248
0.000518109
0.000544403
0.000571606
0.000599065
0.00062739
0.000656799
0.000687493
0.000718589
0.000751355
0.000786412
0.000823034
0.00085993
0.000900294
0.00094525
0.00101185
0.00107238
0.00112297
0.00117379
0.00124837
0.00131985
0.00136453
0.00142153
0.00150359
0.00151027
0.00145561
0.00158151
0.00117846
3.34545e-05
-0.000484844
-0.000443104
-0.000401234
-0.000372503
-0.000416264
-0.000476235
-0.000372723
-0.000361835
-0.000420598
-0.000373541
-0.000264604
-0.000261926
-0.000474337
-0.000954818
-0.00118449
-0.00110769
-0.00106286
-0.00101142
-0.000923276
-0.000856198
-0.000814991
-0.00075503
-0.000686467
-0.000640148
-0.000600984
-0.000552309
-0.000509074
-0.000478445
-0.000447775
-0.000415159
-0.00038871
-0.000366873
-0.000343722
-0.000321267
-0.000302014
-0.000283522
-0.000264042
-0.000245376
-0.000227595
-0.0002094
-0.000190611
-0.000172173
-0.000153568
-0.000134466
-0.000114967
-9.54914e-05
-7.55693e-05
-5.533e-05
-3.47645e-05
-1.41126e-05
6.96815e-06
2.82079e-05
4.97442e-05
7.13542e-05
9.33261e-05
0.000115367
0.000137678
0.000160025
0.000182711
0.000205416
0.000228368
0.000251371
0.000274746
0.000298084
0.000321703
0.000345507
0.000369709
0.000393806
0.00041842
0.000443469
0.000468797
0.000494113
0.000520611
0.000547661
0.000574666
0.000602489
0.000632581
0.000662576
0.000692584
0.000725914
0.000761985
0.000796001
0.000832603
0.000876763
0.000920673
0.000960781
0.00103337
0.00109021
0.0011523
0.00121583
0.00128726
0.00136864
0.00143789
0.00150122
0.00160027
0.00165872
0.00164715
0.00171075
0.00070274
-0.00030835
-0.000335895
-0.000403756
-0.000413169
-0.000405905
-0.000415957
-0.000411796
-0.000368794
-0.00038849
-0.000356629
-0.000324787
-0.000289569
-0.000292469
-0.00030357
-0.000689908
-0.00110835
-0.00108693
-0.00106375
-0.000987917
-0.000916431
-0.000864588
-0.000807055
-0.000744953
-0.000689925
-0.00063979
-0.000591889
-0.000548267
-0.000508755
-0.000472689
-0.000440516
-0.000411577
-0.00038473
-0.000360301
-0.000338098
-0.000317173
-0.000297062
-0.000278063
-0.00025967
-0.000241462
-0.000223326
-0.000205417
-0.000187317
-0.000169014
-0.000150447
-0.000131732
-0.000112598
-9.32106e-05
-7.3463e-05
-5.34991e-05
-3.31249e-05
-1.25583e-05
8.3585e-06
2.94398e-05
5.08669e-05
7.24164e-05
9.42774e-05
0.000116233
0.00013849
0.000160822
0.000183436
0.000206104
0.000229076
0.000252104
0.000275413
0.000298798
0.000322543
0.000346352
0.000370509
0.000394866
0.00041968
0.000444612
0.000470122
0.000496077
0.000522595
0.000549469
0.000577446
0.000606158
0.000635625
0.000666196
0.000698683
0.000732107
0.000767051
0.000804639
0.00084479
0.000886437
0.000931774
0.000981121
0.00104875
0.00110059
0.00117221
0.00125195
0.00131563
0.00138806
0.00149433
0.00159656
0.00166113
0.001726
0.00186046
0.00157012
0.000293901
-0.000410203
-0.000290334
-0.000371722
-0.000431056
-0.000420981
-0.00037543
-0.00036132
-0.000410039
-0.000393849
-0.000310355
-0.000310328
-0.000323564
-0.000259648
-0.000219122
-0.000502029
-0.000981616
-0.00110823
-0.00102034
-0.000956878
-0.000931583
-0.000873387
-0.000790478
-0.000736464
-0.000697151
-0.000639708
-0.00058286
-0.000545148
-0.000509937
-0.000468919
-0.000434696
-0.000409082
-0.000382634
-0.000355872
-0.000333926
-0.00031448
-0.000293977
-0.000274295
-0.000256563
-0.0002389
-0.000220513
-0.000202633
-0.000185033
-0.000166918
-0.000148325
-0.000129817
-0.000110973
-9.16701e-05
-7.20044e-05
-5.22209e-05
-3.20016e-05
-1.14911e-05
9.32874e-06
3.0296e-05
5.16414e-05
7.31535e-05
9.49398e-05
0.000116835
0.000139056
0.000161374
0.000183938
0.000206588
0.000229569
0.000252601
0.000275878
0.000299308
0.000323112
0.00034692
0.00037109
0.000395611
0.000420503
0.000445409
0.000471102
0.000497391
0.000523893
0.000550814
0.000579422
0.00060853
0.000637724
0.00066892
0.000702816
0.000736141
0.000770743
0.000810879
0.00085303
0.000892868
0.000939588
0.000995997
0.00105359
0.00111948
0.00118187
0.00125029
0.00133737
0.00142694
0.00151009
0.00160462
0.00170485
0.00184359
0.00200126
0.00143671
0.000338265
-0.000374481
-0.000429019
-0.000382654
-0.000360381
-0.00038834
-0.00040802
-0.000399423
-0.000366599
-0.000340135
-0.000358361
-0.000321872
-0.000282211
-0.000249488
-0.000198756
-0.000445125
-0.000845387
-0.00105329
-0.00102655
-0.000985899
-0.000912556
-0.000849496
-0.000805103
-0.000746793
-0.000682058
-0.000633731
-0.000591848
-0.000544274
-0.000501487
-0.000468697
-0.000437197
-0.000405398
-0.000378685
-0.000355952
-0.000333121
-0.000311312
-0.000292062
-0.000273671
-0.000254906
-0.000236808
-0.000219362
-0.000201674
-0.000183584
-0.00016564
-0.000147495
-0.000128919
-0.000109965
-9.08822e-05
-7.13798e-05
-5.15388e-05
-3.13545e-05
-1.09824e-05
9.78546e-06
3.0771e-05
5.20601e-05
7.34996e-05
9.52701e-05
0.000117176
0.000139349
0.000161624
0.000184205
0.000206875
0.000229793
0.000252817
0.000276176
0.000299596
0.000323302
0.000347222
0.000371532
0.000395897
0.000420752
0.000446048
0.000471741
0.000497633
0.000524565
0.000552149
0.000580077
0.00060893
0.000639758
0.000671057
0.000703063
0.000738014
0.0007756
0.000812863
0.000853276
0.000899992
0.000947902
0.000995718
0.00105359
0.00111948
0.00118187
0.00125029
0.00133737
0.00142694
0.00151009
0.00160462
0.00170485
0.00184359
0.00200126
0.00143671
0.000338265
-0.000374481
-0.000429019
-0.000382654
-0.000360381
-0.00038834
-0.00040802
-0.000399423
-0.000366599
-0.000340135
-0.000358361
-0.000321872
-0.000282211
-0.000249488
-0.000198756
-0.000445125
-0.000845387
-0.00105329
-0.00102655
-0.000985899
-0.000912556
-0.000849496
-0.000805103
-0.000746793
-0.000682058
-0.000633731
-0.000591848
-0.000544274
-0.000501487
-0.000468697
-0.000437197
-0.000405398
-0.000378685
-0.000355952
-0.000333121
-0.000311312
-0.000292062
-0.000273671
-0.000254906
-0.000236808
-0.000219362
-0.000201674
-0.000183584
-0.00016564
-0.000147495
-0.000128919
-0.000109965
-9.08822e-05
-7.13798e-05
-5.15388e-05
-3.13545e-05
-1.09824e-05
9.78546e-06
3.0771e-05
5.20601e-05
7.34996e-05
9.52701e-05
0.000117176
0.000139349
0.000161624
0.000184205
0.000206875
0.000229793
0.000252817
0.000276176
0.000299596
0.000323302
0.000347222
0.000371532
0.000395897
0.000420752
0.000446048
0.000471741
0.000497633
0.000524565
0.000552149
0.000580077
0.00060893
0.000639758
0.000671057
0.000703063
0.000738014
0.0007756
0.000812863
0.000853276
0.000899992
0.000947902
0.000995718
0.00104875
0.00110059
0.00117221
0.00125195
0.00131563
0.00138806
0.00149433
0.00159656
0.00166113
0.001726
0.00186046
0.00157012
0.000293901
-0.000410203
-0.000290334
-0.000371722
-0.000431056
-0.000420981
-0.00037543
-0.00036132
-0.000410039
-0.000393849
-0.000310355
-0.000310328
-0.000323564
-0.000259648
-0.000219122
-0.000502029
-0.000981616
-0.00110823
-0.00102034
-0.000956878
-0.000931583
-0.000873387
-0.000790478
-0.000736464
-0.000697151
-0.000639708
-0.00058286
-0.000545148
-0.000509937
-0.000468919
-0.000434696
-0.000409082
-0.000382634
-0.000355872
-0.000333926
-0.00031448
-0.000293977
-0.000274295
-0.000256563
-0.0002389
-0.000220513
-0.000202633
-0.000185033
-0.000166918
-0.000148325
-0.000129817
-0.000110973
-9.16701e-05
-7.20044e-05
-5.22209e-05
-3.20016e-05
-1.14911e-05
9.32874e-06
3.0296e-05
5.16414e-05
7.31535e-05
9.49398e-05
0.000116835
0.000139056
0.000161374
0.000183938
0.000206588
0.000229569
0.000252601
0.000275878
0.000299308
0.000323112
0.00034692
0.00037109
0.000395611
0.000420503
0.000445409
0.000471102