# vtk DataFile Version 3.0
fluid_state
ASCII
DATASET RECTILINEAR_GRID
DIMENSIONS 100 40 1
X_COORDINATES 100 float
0.5 1.5 2.5 3.5 4.5 5.5 6.5 7.5 8.5 9.5 10.5 11.5 12.5 13.5 14.5 15.5 16.5 17.5 18.5 19.5 20.5 21.5 22.5 23.5 24.5 25.5 26.5 27.5 28.5 29.5 30.5 31.5 32.5 33.5 34.5 35.5 36.5 37.5 38.5 39.5 40.5 41.5 42.5 43.5 44.5 45.5 46.5 47.5 48.5 49.5 50.5 51.5 52.5 53.5 54.5 55.5 56.5 57.5 58.5 59.5 60.5 61.5 62.5 63.5 64.5 65.5 66.5 67.5 68.5 69.5 70.5 71.5 72.5 73.5 74.5 75.5 76.5 77.5 78.5 79.5 80.5 81.5 82.5 83.5 84.5 85.5 86.5 87.5 88.5 89.5 90.5 91.5 92.5 93.5 94.5 95.5 96.5 97.5 98.5 99.5 
Y_COORDINATES 40 float
0.5 1.5 2.5 3.5 4.5 5.5 6.5 7.5 8.5 9.5 10.5 11.5 12.5 13.5 14.5 15.5 16.5 17.5 18.5 19.5 20.5 21.5 22.5 23.5 24.5 25.5 26.5 27.5 28.5 29.5 30.5 31.5 32.5 33.5 34.5 35.5 36.5 37.5 38.5 39.5 
Z_COORDINATES 1 float
0
POINT_DATA 4000
SCALARS density_difference float 1
LOOKUP_TABLE default
0.000695137
0.000700521
0.000704469
0.000706502
0.000703736
0.000693611
0.000676136
0.000657028
0.000629005
0.000580981
0.000530706
0.00047655
0.000394353
0.000304621
0.000215849
0.000104477
-1.19916e-05
-0.000124658
-0.000248646
-0.000363791
-0.000465902
-0.000574438
-0.000661622
-0.00072658
-0.000794484
-0.000842178
-0.000866458
-0.000892354
-0.00090473
-0.000899082
-0.000893551
-0.00088382
-0.000863186
-0.000838251
-0.000814512
-0.000789093
-0.000757823
-0.000725576
-0.000696604
-0.000666252
-0.000632574
-0.000600598
-0.000570938
-0.000539846
-0.000507879
-0.000477995
-0.000449099
-0.000419391
-0.000390062
-0.000362266
-0.000334761
-0.000307071
-0.000280116
-0.000254078
-0.000228108
-0.000202343
-0.000177236
-0.000152622
-0.00012808
-0.000103893
-8.01591e-05
-5.67068e-05
-3.33844e-05
-1.04102e-05
1.22865e-05
3.47701e-05
5.70981e-05
7.91495e-05
0.000101018
0.000122683
0.000144222
0.00016555
0.000186715
0.000207698
0.000228623
0.000249346
0.000269887
0.000290331
0.000310774
0.00033092
0.000350905
0.000370966
0.000390947
0.000410437
0.000429968
0.000449732
0.000469016
0.000487686
0.000506892
0.000526105
0.000544035
0.000561725
0.000580474
0.000597982
0.000613487
0.000629911
0.000646728
0.00065997
0.000671687
0.000684767
0.000686318
0.000691473
0.000694892
0.000695149
0.00069004
0.000675489
0.000659292
0.000641952
0.000603025
0.000552486
0.000513525
0.000450788
0.000358431
0.000279604
0.000195791
7.81268e-05
-3.93761e-05
-0.000140626
-0.000255087
-0.000376609
-0.000472775
-0.000565929
-0.000656488
-0.000716532
-0.000773465
-0.000829407
-0.000848536
-0.000861569
-0.000885059
-0.000884369
-0.00086725
-0.000858392
-0.000847656
-0.000823418
-0.000794015
-0.000771092
-0.000746982
-0.000714611
-0.000682252
-0.000655227
-0.000625835
-0.000592786
-0.000561914
-0.000533759
-0.0005036
-0.000472747
-0.000443889
-0.000416131
-0.000387254
-0.000358938
-0.000331888
-0.000305263
-0.000278216
-0.000252045
-0.000226514
-0.000201228
-0.000175911
-0.000151389
-0.000127116
-0.000103104
-7.92088e-05
-5.59282e-05
-3.27046e-05
-9.79695e-06
1.2983e-05
3.53058e-05
5.76453e-05
7.96308e-05
0.000101534
0.000123089
0.000144678
0.000165894
0.000187094
0.000208021
0.000228959
0.00024952
0.000270158
0.000290556
0.000310891
0.000330889
0.000351087
0.000370973
0.00039068
0.000410198
0.000429998
0.000449209
0.000468178
0.000487253
0.000506435
0.000524495
0.000542511
0.000560918
0.000578624
0.000594616
0.000611169
0.000627724
0.000641965
0.000654368
0.000667558
0.000678795
0.000680425
0.000688231
0.000689971
0.00068518
0.000679339
0.000670196
0.000652197
0.000620898
0.000586654
0.000551632
0.00049148
0.000414936
0.000352534
0.00026587
0.000151403
5.50102e-05
-5.03334e-05
-0.000176631
-0.000283482
-0.00038983
-0.000500124
-0.000579775
-0.000658493
-0.000736556
-0.000776572
-0.000811518
-0.000851289
-0.000862751
-0.000862408
-0.000867553
-0.000862315
-0.000845109
-0.000825258
-0.000808624
-0.000786355
-0.00075674
-0.000729167
-0.000704841
-0.000675066
-0.000643154
-0.000614567
-0.000586815
-0.000555722
-0.000525433
-0.00049723
-0.000468886
-0.000439179
-0.000411029
-0.000383741
-0.00035631
-0.000328626
-0.000302326
-0.000276191
-0.000250205
-0.00022438
-0.000199553
-0.000174619
-0.000150084
-0.000125742
-0.00010209
-7.82858e-05
-5.49944e-05
-3.17918e-05
-9.1136e-06
1.36953e-05
3.59864e-05
5.82909e-05
8.01356e-05
0.000102105
0.000123596
0.000145151
0.000166279
0.000187559
0.000208384
0.000229282
0.00024981
0.000270524
0.000290743
0.000311055
0.000331105
0.000351299
0.000370886
0.000390685
0.000410333
0.000429872
0.000448709
0.000468076
0.000487164
0.000505579
0.000523499
0.000542356
0.000560077
0.000576468
0.000593233
0.000610685
0.000624991
0.000638081
0.00065266
0.000665514
0.000672884
0.000681073
0.000684799
0.000685999
0.000684477
0.0006772
0.000665717
0.00064717
0.000614872
0.000583581
0.000544037
0.000474189
0.000405112
0.000341391
0.000237728
0.000124234
2.69067e-05
-8.46847e-05
-0.000217359
-0.000333675
-0.00043063
-0.000539451
-0.00063113
-0.000695035
-0.000764927
-0.000810681
-0.000828135
-0.000860118
-0.000878705
-0.000865119
-0.00085983
-0.000858171
-0.000841871
-0.00081579
-0.00079418
-0.000775249
-0.00074894
-0.000717279
-0.000691091
-0.0006655
-0.000635301
-0.000604241
-0.000577039
-0.000548905
-0.000519008
-0.000489774
-0.000462713
-0.000434588
-0.000406329
-0.000378876
-0.00035261
-0.000325566
-0.00029912
-0.000273204
-0.000247992
-0.000222318
-0.000197469
-0.000172822
-0.0001487
-0.000124334
-0.000100769
-7.71703e-05
-5.40673e-05
-3.08203e-05
-8.26684e-06
1.44464e-05
3.66434e-05
5.89695e-05
8.07105e-05
0.000102658
0.000124066
0.000145638
0.000166707
0.000187976
0.0002087
0.000229656
0.000250151
0.000270794
0.00029093
0.000311386
0.000331337
0.000351364
0.000371005
0.00039101
0.000410319
0.000429693
0.000448895
0.000468288
0.000486648
0.000505275
0.000523875
0.000542028
0.00055885
0.000576445
0.000593577
0.000609026
0.000623344
0.000638785
0.000651864
0.000662045
0.000671898
0.000683117
0.000684638
0.000688465
0.000689747
0.000680691
0.000664327
0.000647391
0.00062488
0.000584807
0.000525356
0.000474938
0.000414659
0.000303199
0.000201269
0.000120781
-2.05561e-05
-0.000160556
-0.000263347
-0.000393782
-0.000518366
-0.000605713
-0.000707959
-0.000775846
-0.000808817
-0.000864805
-0.000896604
-0.000884095
-0.000889662
-0.000896397
-0.000879538
-0.000853143
-0.000835966
-0.000820967
-0.000792251
-0.000759705
-0.000738032
-0.000713532
-0.000681001
-0.000650867
-0.000626328
-0.000597653
-0.000566753
-0.000538639
-0.000512479
-0.00048347
-0.000454975
-0.000428117
-0.000401776
-0.000373988
-0.000347527
-0.000321656
-0.000296014
-0.000269809
-0.000244896
-0.00021996
-0.00019538
-0.000170618
-0.000146877
-0.000122865
-9.93809e-05
-7.57864e-05
-5.29831e-05
-2.98579e-05
-7.34755e-06
1.53177e-05
3.73215e-05
5.96394e-05
8.13286e-05
0.000103226
0.000124526
0.000146139
0.000167134
0.000188367
0.000209054
0.000230062
0.000250443
0.000271088
0.000291259
0.000311725
0.000331514
0.000351646
0.000371377
0.000391256
0.000410412
0.000430104
0.000449334
0.000468365
0.000486792
0.000506029
0.000524295
0.00054189
0.000559439
0.000577751
0.000593719
0.00060893
0.000625127
0.000640602
0.000651534
0.000662948
0.000675538
0.000685709
0.00069474
0.000697936
0.000692456
0.000688854
0.000678902
0.000655621
0.000629178
0.000591126
0.000533303
0.000477777
0.000397114
0.000285396
0.000188311
7.03936e-05
-8.15618e-05
-0.000221133
-0.000351075
-0.000485834
-0.000627603
-0.000721458
-0.000803154
-0.00088304
-0.000916571
-0.000935486
-0.000966052
-0.000952719
-0.000931479
-0.000926002
-0.000904727
-0.000873609
-0.000844001
-0.000817892
-0.000792845
-0.000760067
-0.000728418
-0.000701768
-0.000674286
-0.00064269
-0.000613819
-0.000586763
-0.000558853
-0.000529419
-0.000502327
-0.000475458
-0.000448271
-0.000420674
-0.00039485
-0.000368602
-0.000342553
-0.000316499
-0.000291697
-0.000266304
-0.000241494
-0.000216699
-0.000192791
-0.000168355
-0.000144686
-0.000120901
-9.78233e-05
-7.43277e-05
-5.16254e-05
-2.86754e-05
-6.37885e-06
1.62633e-05
3.81647e-05
6.03892e-05
8.19593e-05
0.000103859
0.000125088
0.000146658
0.000167567
0.00018884
0.000209489
0.000230451
0.00025078
0.000271535
0.000291651
0.000312034
0.000331884
0.000352194
0.000371741
0.000391566
0.000411037
0.000430836
0.000449646
0.000468946
0.00048801
0.000506898
0.000524669
0.000543424
0.000561563
0.000578569
0.000594882
0.000612628
0.000628073
0.000641449
0.000655574
0.000669998
0.000678485
0.000696816
0.000706835
0.000708241
0.000705412
0.00070525
0.000695884
0.000672187
0.000639542
0.000603883
0.000558779
0.000474983
0.000367454
0.000296905
0.000173876
-2.41595e-05
-0.000141777
-0.000272536
-0.000482043
-0.000624898
-0.000740761
-0.000875765
-0.000939835
-0.00100084
-0.00107014
-0.00104643
-0.00102168
-0.00104324
-0.00101663
-0.000961494
-0.000924652
-0.00090442
-0.000871419
-0.000820703
-0.000787522
-0.000764158
-0.000728391
-0.000689905
-0.00066332
-0.000636436
-0.000604072
-0.000573567
-0.00054843
-0.000520825
-0.000491987
-0.000465067
-0.00044019
-0.000413213
-0.000386852
-0.000361512
-0.000336917
-0.000311034
-0.000286323
-0.000261836
-0.000237787
-0.000213051
-0.000189464
-0.000165646
-0.000142325
-0.000118605
-9.58542e-05
-7.2692e-05
-5.01439e-05
-2.72741e-05
-5.22031e-06
1.72811e-05
3.91007e-05
6.12499e-05
8.26758e-05
0.000104542
0.000125706
0.000147225
0.000168079
0.000189365
0.000209941
0.000230903
0.000251256
0.000272018
0.000292058
0.000312543
0.000332469
0.000352724
0.000372258
0.000392358
0.000411871
0.000431537
0.000450581
0.000470346
0.000489259
0.000508088
0.000526624
0.000545876
0.000563536
0.00058105
0.000598903
0.0006167
0.000631548
0.000646948
0.000663104
0.000676426
0.000685364
0.000713099
0.000716442
0.000724316
0.00073355
0.000725029
0.000708771
0.000701729
0.000673089
0.000619524
0.000568195
0.000491285
0.000385381
0.000273792
0.000113234
-4.58463e-05
-0.000206961
-0.000412
-0.000592346
-0.000765028
-0.000899287
-0.00104546
-0.00113585
-0.00115127
-0.00117602
-0.00119636
-0.00114915
-0.00111391
-0.00107416
-0.00102434
-0.00098127
-0.000925054
-0.000881575
-0.000844468
-0.000798599
-0.000756177
-0.000724324
-0.000690452
-0.000654516
-0.000622556
-0.000594872
-0.000564863
-0.00053543
-0.000508311
-0.000482595
-0.000455121
-0.000429143
-0.000404023
-0.000379235
-0.000353467
-0.000329242
-0.000304909
-0.000280832
-0.000256293
-0.000232982
-0.00020915
-0.000185806
-0.000162172
-0.000139462
-0.000116169
-9.35514e-05
-7.06211e-05
-4.84519e-05
-2.57602e-05
-3.81073e-06
1.85137e-05
4.013e-05
6.22119e-05
8.35622e-05
0.000105323
0.000126382
0.000147897
0.000168712
0.000189934
0.00021047
0.000231494
0.000251823
0.000272534
0.000292632
0.000313254
0.000333108
0.00035336
0.000373155
0.000393397
0.000412725
0.00043264
0.000452239
0.000471927
0.000490643
0.000510418
0.000529659
0.000548265
0.000566355
0.000586062
0.000603972
0.000620527
0.000638102
0.000656798
0.000670555
0.000683698
0.000700265
0.000727552
0.00073784
0.000750302
0.000755307
0.000750772
0.000744895
0.000733434
0.000703268
0.000656498
0.0005883
0.000513709
0.000422849
0.000236136
5.52796e-05
-3.36671e-05
-0.000297972
-0.000568527
-0.000684038
-0.000910591
-0.00111135
-0.00119777
-0.00132104
-0.0013609
-0.00128245
-0.00131031
-0.00130423
-0.00119099
-0.00112382
-0.00108449
-0.00103681
-0.000959608
-0.000893752
-0.00085804
-0.000813904
-0.000758342
-0.000718404
-0.000686643
-0.000649377
-0.000611911
-0.000582817
-0.000554405
-0.00052412
-0.000495384
-0.000470556
-0.000444516
-0.00041832
-0.000393254
-0.000369887
-0.000345148
-0.000321037
-0.000297359
-0.000274456
-0.000250519
-0.000227482
-0.000204353
-0.000181748
-0.000158445
-0.000136048
-0.000113277
-9.10526e-05
-6.83221e-05
-4.64191e-05
-2.40377e-05
-2.28089e-06
1.99087e-05
4.13458e-05
6.32778e-05
8.45297e-05
0.000106203
0.000127178
0.000148638
0.000169391
0.000190585
0.000211127
0.00023213
0.000252424
0.000273208
0.000293374
0.000313959
0.000333867
0.00035435
0.000374199
0.000394403
0.000414041
0.000434337
0.000453866
0.000473715
0.00049323
0.000513359
0.000532415
0.000551915
0.000571379
0.00059104
0.000609161
0.000628164
0.000647214
0.000665189
0.000681115
0.000698797
0.00071529
0.000746768
0.000768356
0.0007774
0.00077682
0.000791107
0.000795759
0.000762834
0.000735482
0.000719459
0.000640195
0.000527834
0.0004293
0.000273426
7.59613e-05
-0.000159984
-0.000394747
-0.000534143
-0.000810464
-0.00108908
-0.00130175
-0.00136876
-0.00144093
-0.00152947
-0.00151317
-0.00139352
-0.00133654
-0.00127632
-0.00123369
-0.00114012
-0.0010392
-0.000995658
-0.000938976
-0.000861887
-0.000809908
-0.000771232
-0.00072309
-0.000675323
-0.000640742
-0.000607832
-0.000571888
-0.000539511
-0.000513018
-0.000484905
-0.000456802
-0.000431443
-0.000407994
-0.000382698
-0.000358596
-0.000335605
-0.000312986
-0.000289193
-0.000266709
-0.000244199
-0.000221847
-0.000198855
-0.000176912
-0.000154466
-0.00013238
-0.000109867
-8.81654e-05
-6.58735e-05
-4.41362e-05
-2.20022e-05
-5.62975e-07
2.14211e-05
4.27586e-05
6.45125e-05
8.5602e-05
0.000107193
0.000128116
0.000149466
0.000170161
0.000191355
0.000211881
0.000232826
0.000253159
0.00027402
0.000294177
0.000314771
0.000334871
0.000355479
0.000375297
0.000395699
0.00041576
0.000436127
0.000455674
0.000476204
0.000496356
0.000516329
0.000535844
0.000556948
0.000576923
0.000596171
0.000616266
0.000638053
0.000656517
0.000674684
0.000696196
0.000716651
0.000729814
0.000774196
0.000791389
0.000806629
0.000822457
0.000832419
0.000828446
0.000821783
0.000806235
0.000758433
0.00069244
0.00060145
0.000448358
0.0003158
0.00013496
-0.000270368
-0.000446655
-0.000503361
-0.000886408
-0.00110222
-0.00136199
-0.00164451
-0.00167698
-0.00156644
-0.00161734
-0.00149003
-0.00139476
-0.00137425
-0.00127913
-0.00117799
-0.00107857
-0.00101221
-0.000953429
-0.000879628
-0.000818619
-0.000771
-0.000722096
-0.000673758
-0.000633882
-0.00059787
-0.000562402
-0.000528767
-0.000499856
-0.000472231
-0.00044509
-0.00041891
-0.000395334
-0.00037165
-0.000348255
-0.000325197
-0.000303476
-0.000281048
-0.000259007
-0.000236914
-0.000215529
-0.000193376
-0.000171758
-0.000149845
-0.000128434
-0.000106382
-8.49449e-05
-6.30865e-05
-4.17289e-05
-1.98525e-05
1.39039e-06
2.30972e-05
4.42459e-05
6.58478e-05
8.68253e-05
0.000108268
0.000129102
0.000150378
0.00017105
0.000192171
0.000212664
0.000233633
0.000254018
0.000274827
0.000295042
0.000315805
0.000335968
0.000356547
0.000376657
0.000397372
0.000417407
0.000437949
0.000458238
0.000479058
0.000499105
0.000519976
0.000540762
0.000561756
0.000582083
0.000603783
0.000625169
0.000646246
0.0006672
0.000689863
0.000711118
0.00073152
0.000752515
0.000801465
0.000817327
0.000843729
0.000871122
0.000873358
0.000873892
0.000898731
0.000879929
0.000803252
0.00076672
0.000711799
0.000517703
0.000323868
0.000178484
-7.92632e-05
-0.000438358
-0.000826149
-0.00078473
-0.000914215
-0.00124769
-0.00128079
-0.00158118
-0.00167847
-0.00146955
-0.00155283
-0.00156194
-0.00146652
-0.00125221
-0.00118162
-0.00114857
-0.00102943
-0.000938537
-0.00089605
-0.000837515
-0.000765848
-0.000715792
-0.000676538
-0.000629696
-0.000585175
-0.000552709
-0.000521222
-0.000487344
-0.000457894
-0.000433757
-0.00040799
-0.000382353
-0.000359512
-0.000338221
-0.000315288
-0.000293305
-0.000272278
-0.000251444
-0.00022956
-0.000208623
-0.000187585
-0.00016659
-0.000144974
-0.0001241
-0.000102742
-8.16212e-05
-6.00617e-05
-3.9101e-05
-1.76049e-05
3.47058e-06
2.49383e-05
4.58563e-05
6.72672e-05
8.81597e-05
0.00010944
0.000130174
0.000151373
0.000172014
0.000193046
0.000213545
0.000234519
0.00025491
0.000275711
0.000296052
0.00031688
0.000337085
0.000357804
0.000378194
0.000399002
0.000419182
0.00044017
0.000460906
0.000481822
0.000502355
0.000524224
0.000545548
0.00056673
0.000588456
0.000611968
0.000633741
0.000655564
0.000679975
0.000705272
0.000726223
0.000749607
0.000778087
0.000826242
0.000857286
0.000883261
0.000903817
0.000930706
0.0009524
0.000948275
0.000936869
0.000936295
0.000872866
0.000738065
0.000643377
0.000483684
0.000212763
0.000163518
-0.000310885
-0.00106754
-0.000479561
-0.000429014
-0.000981611
-0.000509343
-0.000935861
-0.00115181
-0.000969436
-0.00152467
-0.0016407
-0.00140122
-0.00131969
-0.00121356
-0.00112118
-0.00103967
-0.000967815
-0.00089831
-0.000829456
-0.000771566
-0.000719903
-0.000668549
-0.000622537
-0.000581575
-0.000543312
-0.000508478
-0.00047768
-0.000447972
-0.000420496
-0.000395595
-0.000372134
-0.000348532
-0.00032661
-0.000305477
-0.000284567
-0.000263326
-0.000243091
-0.000222603
-0.000202158
-0.000181371
-0.000161148
-0.000140356
-0.00011976
-9.8801e-05
-7.82369e-05
-5.71195e-05
-3.63535e-05
-1.52024e-05
5.55841e-06
2.67857e-05
4.75752e-05
6.87562e-05
8.94954e-05
0.000110647
0.000131329
0.000152394
0.000172975
0.000193973
0.000214495
0.000235386
0.000255805
0.000276698
0.000297097
0.000317874
0.000338289
0.000359241
0.000379638
0.000400539
0.0004213
0.000442545
0.0004632
0.000484768
0.00050638
0.000528186
0.000549706
0.000572885
0.000595827
0.000618616
0.000642289
0.000668161
0.000692553
0.000717283
0.000744882
0.000773376
0.000798434
0.000854517
0.000893259
0.00092278
0.000947024
0.000988145
0.00102128
0.00101659
0.00102541
0.00105301
0.000975181
0.000844008
0.000801691
0.000667794
0.000359348
0.00011207
-0.000230269
-0.000562457
-0.000377348
-0.000262859
-0.000417094
-0.000450106
-0.000570003
-0.000455942
-0.000529968
-0.00102795
-0.00130592
-0.00132271
-0.00138739
-0.00124341
-0.00108757
-0.00104704
-0.000985113
-0.000890347
-0.000825624
-0.000779882
-0.000719931
-0.000659401
-0.000616908
-0.000578706
-0.000535283
-0.000496869
-0.000467938
-0.000439187
-0.000409376
-0.000383704
-0.00036182
-0.000338837
-0.000316224
-0.000295637
-0.000275996
-0.000255258
-0.000235145
-0.000215525
-0.000195934
-0.000175576
-0.000155741
-0.000135678
-0.000115589
-9.4985e-05
-7.47932e-05
-5.41641e-05
-3.3677e-05
-1.28021e-05
7.69949e-06
2.86391e-05
4.92841e-05
7.02686e-05
9.08691e-05
0.000111869
0.000132486
0.000153431
0.000173979
0.000194915
0.000215425
0.00023628
0.000256763
0.000277652
0.000298098
0.000318961
0.000339536
0.000360528
0.0003811
0.000402282
0.000423282
0.000444663
0.000465792
0.000487903
0.000509832
0.000532084
0.000554651
0.000578677
0.000602155
0.000626158
0.000651793
0.000679
0.000704566
0.00073191
0.000763161
0.000794135
0.000821305
0.000885575
0.000917912
0.000961271
0.00100689
0.00103761
0.0010702
0.00111921
0.00113587
0.0011026
0.0011114
0.00112494
0.000910946
0.000671421
0.000447368
-9.31192e-06
-0.000231418
-0.000334785
-0.000488672
-0.0005261
-0.000340223
-0.000450659
-0.00039083
-0.000343532
-0.000382345
-0.000549854
-0.000811997
-0.00116695
-0.0012584
-0.0011865
-0.00113932
-0.00105328
-0.000955933
-0.00089341
-0.000839097
-0.000770007
-0.000710857
-0.000664492
-0.000614283
-0.000565696
-0.000528425
-0.000493678
-0.000457631
-0.000426911
-0.000401609
-0.000375658
-0.000350567
-0.000328831
-0.000308467
-0.000287152
-0.000266958
-0.000247835
-0.000228634
-0.000208789
-0.000189659
-0.000170418
-0.000150948
-0.000131055
-0.000111541
-9.15647e-05
-7.15632e-05
-5.12255e-05
-3.11416e-05
-1.05976e-05
9.77794e-06
3.04644e-05
5.08872e-05
7.16948e-05
9.22241e-05
0.000113053
0.000133568
0.000154433
0.000174972
0.000195799
0.000216295
0.000237169
0.00025769
0.000278507
0.000299064
0.000320068
0.000340669
0.00036167
0.000382611
0.000404002
0.000424953
0.000446676
0.000468583
0.000490732
0.000512689
0.000536219
0.000559829
0.000583335
0.000607841
0.000634834
0.000660795
0.000687096
0.000717121
0.000749093
0.0007779
0.000810408
0.000849443
0.000910818
0.000949825
0.000997548
0.00105146
0.00109381
0.00113168
0.00119302
0.00123818
0.00122853
0.00124152
0.00126205
0.00117506
0.000885624
0.000203172
-0.00031883
-0.000342118
-0.000424234
-0.000466096
-0.000419512
-0.000374623
-0.000445206
-0.000365786
-0.00033525
-0.000354227
-0.000376478
-0.000406006
-0.000716849
-0.0011104
-0.00122046
-0.00113248
-0.00100617
-0.000949629
-0.000908551
-0.000835066
-0.000760245
-0.000709482
-0.000663165
-0.000609272
-0.000560001
-0.000521995
-0.000486687
-0.000450699
-0.000419015
-0.000392818
-0.000367555
-0.000342801
-0.000320513
-0.00030032
-0.000279942
-0.000259998
-0.000240938
-0.000222351
-0.000203225
-0.00018434
-0.000165471
-0.000146569
-0.000127148
-0.000107879
-8.83e-05
-6.86786e-05
-4.8645e-05
-2.87659e-05
-8.52361e-06
1.16372e-05
3.21229e-05
5.24092e-05
7.30264e-05
9.34482e-05
0.000114149
0.000134606
0.000155365
0.000175861
0.000196632
0.000217146
0.000237965
0.0002585
0.00027936
0.000299995
0.000320971
0.000341703
0.000362883
0.000383911
0.000405355
0.000426701
0.000448713
0.000470676
0.000493214
0.000515992
0.000539752
0.000563584
0.000588362
0.000614031
0.000641057
0.000668292
0.000697266
0.000728305
0.000760939
0.000793648
0.000829855
0.000870298
0.000930639
0.000985754
0.00103127
0.00107698
0.00114567
0.001211
0.00125084
0.00130316
0.00138014
0.00138616
0.0013364
0.00145867
0.0010862
1.59932e-05
-0.000468663
-0.000427494
-0.000385495
-0.000357557
-0.000399279
-0.000455041
-0.000355121
-0.000345809
-0.000401858
-0.000355702
-0.000250285
-0.00024684
-0.000455766
-0.000927372
-0.00114597
-0.00106645
-0.00102127
-0.000969682
-0.000881919
-0.000814932
-0.000773556
-0.000714445
-0.000647309
-0.000602104
-0.000564034
-0.000516912
-0.000475157
-0.000445685
-0.000416064
-0.000384527
-0.000358849
-0.000337552
-0.000314793
-0.000292655
-0.000273467
-0.000254965
-0.000235375
-0.000216594
-0.000198577
-0.00018021
-0.000161219
-0.000142675
-0.000123944
-0.000104873
-8.54255e-05
-6.61742e-05
-4.65119e-05
-2.67402e-05
-6.69129e-06
1.32276e-05
3.35189e-05
5.37359e-05
7.41932e-05
9.44881e-05
0.000115089
0.000135517
0.000156167
0.000176615
0.00019736
0.000217885
0.000238631
0.000259198
0.000280116
0.000300776
0.000321717
0.000342627
0.00036394
0.000384954
0.000406513
0.000428298
0.000450404
0.00047233
0.000495472
0.000518965
0.000542501
0.000566686
0.000593142
0.000619326
0.000645647
0.000675033
0.000707115
0.000737047
0.000769619
0.000809282
0.000848706
0.000884327
0.000950483
0.00100189
0.00105836
0.00111602
0.00118118
0.00125567
0.00131901
0.00137662
0.00146835
0.0015237
0.00151502
0.00157647
0.000637042
-0.000304438
-0.000328487
-0.000390632
-0.000398647
-0.000390285
-0.000398327
-0.00039464
-0.000353107
-0.000370917
-0.000339878
-0.000309509
-0.000275476
-0.000277181
-0.000287585
-0.000664011
-0.00107043
-0.00104777
-0.00102291
-0.000946589
-0.000874849
-0.000823003
-0.000765704
-0.000704288
-0.000650288
-0.000601408
-0.000554859
-0.000512656
-0.000474539
-0.000439815
-0.000408803
-0.000380884
-0.00035486
-0.000331097
-0.000309327
-0.000288712
-0.000268731
-0.000249776
-0.000231284
-0.000212962
-0.000194626
-0.000176551
-0.000158246
-0.000139831
-0.000121149
-0.000102449
-8.33587e-05
-6.41814e-05
-4.46912e-05
-2.51735e-05
-5.30817e-06
1.45433e-05
3.4676e-05
5.47553e-05
7.51091e-05
9.53604e-05
0.000115854
0.000136215
0.000156814
0.000177261
0.000197934
0.000218438
0.000239201
0.000259802
0.000280653
0.00030137
0.000322428
0.000343348
0.000364614
0.000385887
0.000407625
0.000429301
0.000451579
0.000474117
0.000497256
0.000520585
0.000545045
0.000570059
0.000595886
0.00062263
0.000651294
0.000680715
0.000711687
0.000745034
0.000780918
0.000818082
0.000858833
0.000903235
0.000964668
0.00101116
0.00107672
0.00114974
0.00120713
0.00127286
0.00137131
0.00146543
0.00152389
0.00158466
0.00171268
0.00144309
0.000252853
-0.000401181
-0.000286506
-0.000360836
-0.000415863
-0.000405358
-0.000360503
-0.000346514
-0.000392792
-0.00037669
-0.000296021
-0.000295031
-0.000307959
-0.000247651
-0.00020588
-0.000479059
-0.000947085
-0.00106853
-0.00098085
-0.000917087
-0.000889882
-0.000831218
-0.000749335
-0.000695986
-0.000657166
-0.000601048
-0.000545841
-0.000509441
-0.000475492
-0.000435949
-0.000402995
-0.000378345
-0.00035273
-0.000326729
-0.000305257
-0.000286103
-0.000265767
-0.000246177
-0.000228357
-0.000210575
-0.000192016
-0.000173981
-0.000156175
-0.000137941
-0.000119243
-0.000100743
-8.19379e-05
-6.28347e-05
-4.3427e-05
-2.40763e-05
-4.36035e-06
1.54464e-05
3.54849e-05
5.5464e-05
7.57399e-05
9.5965e-05
0.000116386
0.000136699
0.000157264
0.000177705
0.000198329
0.000218826
0.000239596
0.000260208
0.000281026
0.000301795
0.000322905
0.000343828
0.000365106
0.000386542
0.000408346
0.000429999
0.000452451
0.00047531
0.000498418
0.000521794
0.000546856
0.000572236
0.000597777
0.000625126
0.000655125
0.000684406
0.000715024
0.000750824
0.000788562
0.0008239
0.000865965
0.000917118
0.000969074
0.00102904
0.00108552
0.00114752
0.00122751
0.00130954
0.00138508
0.00147183
0.00156515
0.00169437
0.00184178
0.00131616
0.000295226
-0.000367651
-0.000417228
-0.000372152
-0.000349089
-0.000374172
-0.000392438
-0.000383154
-0.000350979
-0.000325281
-0.000342361
-0.000307189
-0.000268094
-0.000235586
-0.000187448
-0.000428669
-0.00081709
-0.0010179
-0.000987612
-0.000944615
-0.000871334
-0.000808206
-0.000763552
-0.000705857
-0.000642368
-0.000595192
-0.000554493
-0.00050845
-0.000467175
-0.000435667
-0.000405343
-0.000374684
-0.000348853
-0.000326782
-0.000304449
-0.000283022
-0.00026393
-0.000245596
-0.000226781
-0.000208594
-0.000190959
-0.00017311
-0.000154835
-0.000136773
-0.000118513
-9.99437e-05
-8.10358e-05
-6.21455e-05
-4.28951e-05
-2.34839e-05
-3.80401e-06
1.58732e-05
3.58629e-05
5.58645e-05
7.6085e-05
9.62453e-05
0.000116653
0.00013698
0.000157497
0.000177903
0.000198544
0.000219062
0.000239771
0.000260381
0.000281277
0.000302037
0.000323053
0.000344091
0.000365497
0.000386782
0.000408555
0.000430586
0.000453024
0.000475505
0.000499034
0.000523036
0.000547425
0.000572578
0.000599689
0.000627098
0.000655273
0.000686149
0.000719596
0.000752573
0.000788662
0.000830632
0.000873735
0.000916554
0.000969074
0.00102904
0.00108552
0.00114752
0.00122751
0.00130954
0.00138508
0.00147183
0.00156515
0.00169437
0.00184178
0.00131616
0.000295226
-0.000367651
-0.000417228
-0.000372152
-0.000349089
-0.000374172
-0.000392438
-0.000383154
-0.000350979
-0.000325281
-0.000342361
-0.000307189
-0.000268094
-0.000235586
-0.000187448
-0.000428669
-0.00081709
-0.0010179
-0.000987612
-0.000944615
-0.000871334
-0.000808206
-0.000763552
-0.000705857
-0.000642368
-0.000595192
-0.000554493
-0.00050845
-0.000467175
-0.000435667
-0.000405343
-0.000374684
-0.000348853
-0.000326782
-0.000304449
-0.000283022
-0.00026393
-0.000245596
-0.000226781
-0.000208594
-0.000190959
-0.00017311
-0.000154835
-0.000136773
-0.000118513
-9.99437e-05
-8.10358e-05
-6.21455e-05
-4.28951e-05
-2.34839e-05
-3.80401e-06
1.58732e-05
3.58629e-05
5.58645e-05
7.6085e-05
9.62453e-05
0.000116653
0.00013698
0.000157497
0.000177903
0.000198544
0.000219062
0.000239771
0.000260381
0.000281277
0.000302037
0.000323053
0.000344091
0.000365497
0.000386782
0.000408555
0.000430586
0.000453024
0.000475505
0.000499034
0.000523036
0.000547425
0.000572578
0.000599689
0.000627098
0.000655273
0.000686149
0.000719596
0.000752573
0.000788662
0.000830632
0.000873735
0.000916554
0.000964668
0.00101116
0.00107672
0.00114974
0.00120713
0.00127286
0.00137131
0.00146543
0.00152389
0.00158466
0.00171268
0.00144309
0.000252853
-0.000401181
-0.000286506
-0.000360836
-0.000415863
-0.000405358
-0.000360503
-0.000346514
-0.000392792
-0.00037669
-0.000296021
-0.000295031
-0.000307959
-0.000247651
-0.00020588
-0.000479059
-0.000947085
-0.00106853
-0.00098085
-0.000917087
-0.000889882
-0.000831218
-0.000749335
-0.000695986
-0.000657166
-0.000601048
-0.000545841
-0.000509441
-0.000475492
-0.000435949
-0.000402995
-0.000378345
-0.00035273
-0.000326729
-0.000305257
-0.000286103
-0.000265767
-0.000246177
-0.000228357
-0.000210575
-0.000192016
-0.000173981
-0.000156175
-0.000137941
-0.000119243
-0.000100743
-8.19379e-05
-6.28347e-05
-4.3427e-05
-2.40763e-05
-4.36035e-06
1.54464e-05
3.54849e-05
5.5464e-05
7.57399e-05
9.5965e-05
0.000116386
0.000136699
0.000157264
0.000177705
0.000198329
0.000218826
0.000239596
0.000260208
0.000281026
0.000301795
0.000322905
0.000343828
0.000365106
0.000386542
0.000408346
0.000429999
0.000452451