# vtk DataFile Version 3.0
fluid_state
ASCII
DATASET RECTILINEAR_GRID
DIMENSIONS 100 40 1
X_COORDINATES 100 float
0.5 1.5 2.5 3.5 4.5 5.5 6.5 7.5 8.5 9.5 10.5 11.5 12.5 13.5 14.5 15.5 16.5 17.5 18.5 19.5 20.5 21.5 22.5 23.5 24.5 25.5 26.5 27.5 28.5 29.5 30.5 31.5 32.5 33.5 34.5 35.5 36.5 37.5 38.5 39.5 40.5 41.5 42.5 43.5 44.5 45.5 46.5 47.5 48.5 49.5 50.5 51.5 52.5 53.5 54.5 55.5 56.5 57.5 58.5 59.5 60.5 61.5 62.5 63.5 64.5 65.5 66.5 67.5 68.5 69.5 70.5 71.5 72.5 73.5 74.5 75.5 76.5 77.5 78.5 79.5 80.5 81.5 82.5 83.5 84.5 85.5 86.5 87.5 88.5 89.5 90.5 91.5 92.5 93.5 94.5 95.5 96.5 97.5 98.5 99.5 
Y_COORDINATES 40 float
0.5 1.5 2.5 3.5 4.5 5.5 6.5 7.5 8.5 9.5 10.5 11.5 12.5 13.5 14.5 15.5 16.5 17.5 18.5 19.5 20.5 21.5 22.5 23.5 24.5 25.5 26.5 27.5 28.5 29.5 30.5 31.5 32.5 33.5 34.5 35.5 36.5 37.5 38.5 39.5 
Z_COORDINATES 1 float
0
POINT_DATA 4000
SCALARS density_difference float 1
LOOKUP_TABLE default
0.000757741
0.000765182
0.00077109
0.000774803
0.000773281
0.000764063
0.000746926
0.000727893
0.000699358
0.000649671
0.000597415
0.000540888
0.000454663
0.000360395
0.0002668
0.000149324
2.63638e-05
-9.28972e-05
-0.000224284
-0.000346227
-0.000454708
-0.00057023
-0.000663204
-0.000732806
-0.000805762
-0.000857547
-0.000884856
-0.000913762
-0.000928643
-0.000924862
-0.000921061
-0.000912854
-0.00089347
-0.000869477
-0.000846732
-0.000822308
-0.000791725
-0.000760075
-0.000731897
-0.000702231
-0.000669045
-0.000637608
-0.000608589
-0.000578007
-0.000546469
-0.000517057
-0.000488648
-0.00045931
-0.000430317
-0.000402853
-0.000375641
-0.000348139
-0.00032134
-0.000295399
-0.000269455
-0.000243608
-0.000218362
-0.000193506
-0.000168628
-0.000143982
-0.0001197
-9.5566e-05
-7.14487e-05
-4.75383e-05
-2.37916e-05
-1.05088e-07
2.35504e-05
4.70841e-05
7.056e-05
9.39917e-05
0.000117423
0.0001408
0.000164134
0.000187437
0.000210798
0.000234099
0.000257318
0.000280573
0.000303919
0.000327079
0.000350146
0.000373396
0.000396619
0.000419414
0.000442289
0.000465469
0.00048816
0.000510254
0.000532901
0.000555569
0.000576864
0.000597918
0.000620028
0.000640799
0.000659409
0.000678977
0.000698839
0.000714868
0.000729254
0.000745028
0.000748558
0.000755958
0.000761182
0.000762945
0.0007591
0.000745345
0.000729315
0.000712201
0.000672316
0.000619998
0.000579405
0.000513981
0.000417141
0.000334139
0.000245688
0.000121817
-2.6416e-06
-0.000109857
-0.000231023
-0.000360028
-0.000462481
-0.000561398
-0.000658186
-0.000722865
-0.000784205
-0.000844397
-0.000866519
-0.000882062
-0.000908351
-0.000909582
-0.00089396
-0.000886445
-0.000877255
-0.000854071
-0.000825408
-0.000803374
-0.000780344
-0.000748541
-0.000716774
-0.000690495
-0.000661867
-0.000629257
-0.000598963
-0.000571414
-0.000541837
-0.000511365
-0.000483021
-0.000455705
-0.000427247
-0.000399203
-0.000372511
-0.000346107
-0.000319265
-0.000293156
-0.00026772
-0.000242353
-0.000216935
-0.000192147
-0.000167597
-0.000143108
-0.000118701
-9.47163e-05
-7.07454e-05
-4.68742e-05
-2.30808e-05
4.70327e-07
2.40983e-05
4.75964e-05
7.10711e-05
9.44217e-05
0.000117869
0.000141163
0.000164499
0.000187778
0.000211119
0.000234287
0.000257574
0.000280816
0.000304018
0.00032706
0.000350317
0.00037342
0.000396327
0.000419191
0.000442314
0.000464953
0.000487289
0.000509849
0.000532433
0.000553935
0.000575305
0.000597149
0.000618115
0.000637354
0.00065707
0.000676784
0.000693878
0.000709144
0.000725076
0.000738845
0.000742607
0.000752682
0.00075607
0.000752789
0.000748101
0.000739831
0.000722083
0.000690444
0.000655197
0.000619228
0.000556505
0.000476469
0.000410881
0.000319772
0.000199055
9.72739e-05
-1.44339e-05
-0.000147957
-0.000261374
-0.00037438
-0.00049178
-0.000576608
-0.000660938
-0.000744356
-0.000788139
-0.000826413
-0.0008698
-0.000883594
-0.000885373
-0.000892352
-0.000888905
-0.000872878
-0.000854148
-0.000838627
-0.000817474
-0.000788422
-0.000761716
-0.00073821
-0.000709183
-0.000677738
-0.000649929
-0.000622799
-0.000592328
-0.000562493
-0.000534969
-0.000507101
-0.000477922
-0.000450154
-0.000423391
-0.000396265
-0.000368957
-0.000342865
-0.000317022
-0.000291097
-0.000265397
-0.000240489
-0.000215518
-0.000190703
-0.000166121
-0.000141989
-0.00011772
-9.37053e-05
-6.97928e-05
-4.61409e-05
-2.23545e-05
1.18513e-06
2.47436e-05
4.81172e-05
7.16284e-05
9.49359e-05
0.000118318
0.000141546
0.000164936
0.000188135
0.000211409
0.000234568
0.000257909
0.000280994
0.000304147
0.000327271
0.000350502
0.000373325
0.000396307
0.000419334
0.000442165
0.000464449
0.000487181
0.000509779
0.000531551
0.000552947
0.00057517
0.00059632
0.000615915
0.000636007
0.000656613
0.000674002
0.000689934
0.000707501
0.00072298
0.000732792
0.000743452
0.000749159
0.000752073
0.00075234
0.000745955
0.000735227
0.000717062
0.000684319
0.000652016
0.000611318
0.000538442
0.000466163
0.000398922
0.000290023
0.000170169
6.70468e-05
-5.10777e-05
-0.000191489
-0.000315397
-0.000418143
-0.000533957
-0.000631882
-0.00070048
-0.000775001
-0.000824823
-0.000844828
-0.000879972
-0.00090083
-0.000888843
-0.000884945
-0.000884956
-0.000869845
-0.000844663
-0.000823711
-0.000806032
-0.00078042
-0.000749358
-0.000723787
-0.000699153
-0.000669441
-0.000639004
-0.000612381
-0.000585028
-0.000555556
-0.00052695
-0.000500389
-0.000472896
-0.000444985
-0.000418073
-0.000392147
-0.000365545
-0.000339284
-0.000313705
-0.000288579
-0.000263074
-0.000238133
-0.0002135
-0.000189107
-0.000164536
-0.000140485
-0.000116465
-9.26377e-05
-6.8712e-05
-4.51783e-05
-2.15227e-05
1.93148e-06
2.54832e-05
4.87633e-05
7.22239e-05
9.54612e-05
0.000118835
0.000142019
0.000165373
0.000188486
0.000211797
0.000234942
0.000258187
0.000281206
0.000304491
0.000327533
0.000350572
0.000373474
0.000396653
0.00041935
0.000441996
0.000464685
0.000487427
0.00050929
0.000531275
0.000553408
0.000574875
0.000595114
0.00061597
0.000636463
0.000654945
0.000672398
0.000690805
0.000706774
0.000719434
0.000731964
0.000745653
0.000749251
0.000754946
0.0007579
0.000749727
0.000734188
0.000717384
0.000694728
0.000653536
0.000591826
0.000538926
0.000475943
0.000358567
0.0002511
0.000165591
1.62654e-05
-0.000132097
-0.000241324
-0.000380064
-0.000512123
-0.000605412
-0.000714106
-0.000786904
-0.000822897
-0.000883035
-0.000917455
-0.000906421
-0.000913592
-0.000922125
-0.000906251
-0.000880621
-0.000864143
-0.000850437
-0.000822144
-0.000790141
-0.000769167
-0.000745574
-0.000713348
-0.000683874
-0.000659943
-0.000632022
-0.000601482
-0.000574084
-0.000548459
-0.000520124
-0.000492011
-0.000465829
-0.000439904
-0.000412677
-0.000386514
-0.00036116
-0.000335734
-0.000309888
-0.000285056
-0.000260358
-0.000235696
-0.000210976
-0.000186971
-0.000162808
-0.000138836
-0.000114854
-9.13301e-05
-6.75665e-05
-4.40693e-05
-2.04942e-05
2.76856e-06
2.62808e-05
4.95185e-05
7.29003e-05
9.6037e-05
0.000119426
0.000142547
0.00016584
0.000188928
0.000212269
0.000235313
0.000258539
0.000281611
0.000304886
0.000327779
0.000350908
0.000373922
0.000396953
0.000419514
0.000442473
0.00046521
0.000487563
0.000509525
0.000532125
0.000553927
0.000574813
0.000595843
0.000617414
0.000636716
0.000654976
0.000674414
0.000692789
0.000706573
0.000720596
0.000735931
0.000748592
0.000760159
0.000765084
0.000760911
0.00075862
0.000749763
0.000726072
0.000699395
0.000660288
0.000600091
0.000541674
0.000457035
0.000339245
0.000236508
0.000111267
-4.93066e-05
-0.000197958
-0.000335891
-0.000478782
-0.000629517
-0.000729773
-0.0008162
-0.000901507
-0.000937894
-0.000959042
-0.000991768
-0.000979397
-0.000958609
-0.000954188
-0.00093336
-0.000902837
-0.000873188
-0.000847777
-0.000823288
-0.000790907
-0.000759397
-0.000733527
-0.000706447
-0.00067537
-0.000646832
-0.000620538
-0.000593032
-0.000564228
-0.000537564
-0.000511435
-0.000484645
-0.000457696
-0.000432276
-0.000406665
-0.000380916
-0.000355397
-0.000330835
-0.000305865
-0.000281139
-0.000256623
-0.000232659
-0.000208315
-0.000184388
-0.000160496
-0.000136947
-0.000113104
-8.96849e-05
-6.61363e-05
-4.28598e-05
-1.93408e-05
3.81935e-06
2.72057e-05
5.03248e-05
7.36815e-05
9.67518e-05
0.000120072
0.000143112
0.000166422
0.000189483
0.000212755
0.000235756
0.000259077
0.000282106
0.000305277
0.000328247
0.000351547
0.000374386
0.000397346
0.000420252
0.000443312
0.000465631
0.000488252
0.000510899
0.000533128
0.000554436
0.000576525
0.000598196
0.000618397
0.000638085
0.000658999
0.00067767
0.000693839
0.000711019
0.000728195
0.000739208
0.000760657
0.00077309
0.000776122
0.000775074
0.000776244
0.000767584
0.000743829
0.000710861
0.000673496
0.000626552
0.000538786
0.000425352
0.000350085
0.000219927
1.01608e-05
-0.000115183
-0.00025484
-0.000476676
-0.000628547
-0.000751672
-0.000894892
-0.000962989
-0.00102803
-0.00110068
-0.00107709
-0.00105224
-0.00107525
-0.00104842
-0.000992718
-0.000955144
-0.000935562
-0.000902632
-0.000851515
-0.000818246
-0.000795616
-0.000759826
-0.000721502
-0.000695145
-0.00066892
-0.000636694
-0.000606676
-0.000581929
-0.00055501
-0.000526464
-0.00050021
-0.000475778
-0.00044948
-0.000423461
-0.000398786
-0.000374548
-0.000349228
-0.000324748
-0.000300747
-0.000276825
-0.0002524
-0.000228774
-0.000205109
-0.000181556
-0.000157764
-0.000134564
-0.000111102
-8.78524e-05
-6.44173e-05
-4.13992e-05
-1.80568e-05
5.01439e-06
2.82966e-05
5.12636e-05
7.45608e-05
9.75642e-05
0.00012081
0.000143794
0.000167099
0.000190088
0.000213343
0.000236374
0.000259686
0.000282644
0.000305907
0.000328966
0.000352195
0.000375035
0.000398271
0.000421232
0.000444147
0.000466728
0.000489827
0.000512329
0.0005345
0.000556632
0.000579229
0.000600419
0.000621175
0.000642498
0.00066344
0.000681526
0.000699877
0.000719176
0.000735139
0.000746754
0.000778163
0.000783615
0.000793531
0.000805147
0.000797398
0.000781633
0.000775459
0.000746314
0.00069007
0.000636627
0.000555481
0.000443466
0.000324619
0.000154166
-1.53408e-05
-0.000187306
-0.00040508
-0.000596832
-0.0007811
-0.000922626
-0.00107673
-0.00117212
-0.00118862
-0.00121422
-0.00123559
-0.00118665
-0.0011505
-0.00110935
-0.00105894
-0.00101498
-0.000957813
-0.000913942
-0.000876886
-0.000830382
-0.000787953
-0.000756049
-0.000722384
-0.000686281
-0.000654641
-0.000627093
-0.000597514
-0.000568224
-0.000541685
-0.000516288
-0.000489424
-0.000463792
-0.000439373
-0.000414966
-0.000389847
-0.000365977
-0.000342272
-0.000318464
-0.000294432
-0.000271285
-0.00024783
-0.00022448
-0.000201037
-0.000178137
-0.000154825
-0.000131784
-0.000108593
-8.57546e-05
-6.25366e-05
-3.9642e-05
-1.65097e-05
6.33795e-06
2.95243e-05
5.24043e-05
7.55707e-05
9.84588e-05
0.00012168
0.000144621
0.000167843
0.000190789
0.000214094
0.000237103
0.00026035
0.000283371
0.000306767
0.000329759
0.000352978
0.000376095
0.000399476
0.000422258
0.000445427
0.000468598
0.000491623
0.000513939
0.000537094
0.000559983
0.000581925
0.000603582
0.000626634
0.000648058
0.000667724
0.000688685
0.000710511
0.000727342
0.000743145
0.000762802
0.000793806
0.000806784
0.000821588
0.000828461
0.000825075
0.00082069
0.000809323
0.000778095
0.000729794
0.000658319
0.000578191
0.000481886
0.000283916
9.07735e-05
-6.26956e-06
-0.000287365
-0.000575104
-0.000698982
-0.00093933
-0.00115069
-0.00124171
-0.00136984
-0.00141042
-0.00132809
-0.00135591
-0.00134847
-0.00123183
-0.00116202
-0.00112153
-0.00107318
-0.000994525
-0.000927152
-0.000891561
-0.000846991
-0.000790876
-0.000750457
-0.000718872
-0.000681324
-0.000643822
-0.000614646
-0.000586599
-0.000556317
-0.000527959
-0.000503388
-0.000477939
-0.000452011
-0.000427584
-0.000404626
-0.000380558
-0.000356792
-0.000333764
-0.00031119
-0.000287798
-0.000264954
-0.000242253
-0.000219699
-0.00019663
-0.000174083
-0.000151344
-0.000128741
-0.000105788
-8.32513e-05
-6.03837e-05
-3.77125e-05
-1.4745e-05
7.89708e-06
3.09057e-05
5.36676e-05
7.67238e-05
9.95123e-05
0.00012266
0.000145528
0.000168707
0.000191652
0.000214925
0.000237893
0.000261209
0.0002843
0.000307651
0.0003307
0.000354157
0.000377334
0.000400674
0.000423787
0.000447357
0.000470465
0.000493665
0.000516832
0.000540367
0.000563078
0.000585975
0.000609101
0.000632115
0.000653787
0.00067607
0.000698612
0.000719675
0.000738852
0.000759524
0.000779074
0.000814714
0.00083958
0.000850845
0.000852001
0.000868503
0.000874976
0.000841035
0.000813171
0.000796736
0.000712819
0.000593314
0.000488073
0.000320786
0.000109609
-0.000143113
-0.000394436
-0.000545637
-0.000838511
-0.00113283
-0.00135668
-0.00142603
-0.00149855
-0.00158822
-0.001569
-0.00144353
-0.00138272
-0.0013199
-0.0012759
-0.00117948
-0.00107578
-0.001032
-0.000974398
-0.000896257
-0.000843532
-0.000804723
-0.000755973
-0.000707785
-0.000672778
-0.000639849
-0.000603539
-0.000571188
-0.000544657
-0.000516834
-0.000488778
-0.000463891
-0.000440739
-0.000416022
-0.000392257
-0.000369948
-0.000347731
-0.00032458
-0.000302444
-0.000280537
-0.00025844
-0.000235901
-0.000214062
-0.00019191
-0.000169728
-0.000147282
-0.000125256
-0.000102788
-8.04596e-05
-5.7872e-05
-3.55612e-05
-1.2831e-05
9.68101e-06
3.24869e-05
5.50569e-05
7.80106e-05
0.000100727
0.00012375
0.00014654
0.00016971
0.000192628
0.000215833
0.000238833
0.000262224
0.000285301
0.000308661
0.000331906
0.000355495
0.000378645
0.000402194
0.00042575
0.000449407
0.000472546
0.000496462
0.000520307
0.000543708
0.000566918
0.000591501
0.000615199
0.00063783
0.000661583
0.00068681
0.000708814
0.000730136
0.000755185
0.000778833
0.00079499
0.000844451
0.000864652
0.000882451
0.000901243
0.000913218
0.000910204
0.00090441
0.000889413
0.00083832
0.000768077
0.000671947
0.000507642
0.000362631
0.000168136
-0.000263993
-0.000454805
-0.000518195
-0.000924609
-0.00115443
-0.00142612
-0.00171781
-0.00174666
-0.0016276
-0.00167624
-0.00154359
-0.00144386
-0.00142041
-0.00132179
-0.00121836
-0.00111636
-0.0010492
-0.000989767
-0.000914998
-0.000853193
-0.000805254
-0.000755655
-0.000706776
-0.00066628
-0.000630001
-0.00059402
-0.000560178
-0.00053103
-0.000503548
-0.000476354
-0.000450479
-0.000427123
-0.000403976
-0.000380894
-0.00035846
-0.000337163
-0.000315398
-0.000293735
-0.000272258
-0.00025119
-0.000229532
-0.000208071
-0.00018649
-0.000165048
-0.000143105
-0.000121397
-9.94e-05
-7.75055e-05
-5.52072e-05
-3.31369e-05
-1.07121e-05
1.15711e-05
3.42033e-05
5.66289e-05
7.94175e-05
0.000102017
0.000124952
0.000147699
0.000170787
0.000193654
0.00021688
0.000239921
0.000263258
0.000286385
0.000309922
0.000333229
0.000356791
0.000380241
0.000404127
0.00042766
0.000451507
0.000475427
0.000499668
0.000523414
0.000547771
0.000572336
0.000596839
0.000620921
0.000646161
0.000671321
0.000695842
0.000720488
0.000746625
0.000771475
0.000795077
0.000819572
0.000874026
0.000893016
0.000922665
0.000953613
0.000957623
0.000959748
0.000987089
0.000968122
0.000887149
0.000848395
0.000788116
0.000579609
0.000370744
0.000211125
-6.86321e-05
-0.000452224
-0.000862047
-0.000822548
-0.000959192
-0.00130615
-0.00133895
-0.00164775
-0.0017461
-0.00152585
-0.00160732
-0.0016141
-0.00151491
-0.00129359
-0.00122128
-0.00118813
-0.00106703
-0.000974851
-0.000932268
-0.00087323
-0.000800762
-0.000749944
-0.000710304
-0.000662648
-0.000617436
-0.000584394
-0.000552619
-0.000518221
-0.000488636
-0.000464425
-0.000438856
-0.00041327
-0.000390862
-0.000369916
-0.000347552
-0.000325955
-0.000305592
-0.000285199
-0.000263927
-0.000243343
-0.000222843
-0.000202073
-0.00018081
-0.000159966
-0.000138761
-0.000117429
-9.57586e-05
-7.43182e-05
-5.24333e-05
-3.05777e-05
-8.41469e-06
1.35925e-05
3.60135e-05
5.83187e-05
8.09308e-05
0.000103397
0.000126247
0.000148939
0.00017193
0.000194783
0.000218014
0.000241045
0.000264376
0.00028762
0.000311231
0.000334573
0.000358289
0.000382023
0.000406021
0.000429706
0.000454032
0.000478422
0.000502792
0.000527058
0.000552476
0.000577625
0.000602377
0.000627941
0.000655108
0.000680738
0.000706116
0.000734403
0.000763372
0.000788026
0.000814848
0.000847231
0.000901001
0.000936149
0.00096567
0.000989357
0.00101943
0.00104445
0.00104121
0.00102961
0.00102978
0.000962602
0.00081609
0.000712259
0.000539485
0.000245691
0.000183305
-0.000322326
-0.00111907
-0.000502748
-0.000447323
-0.00102638
-0.000535652
-0.000974118
-0.00119988
-0.00101202
-0.00157838
-0.00169346
-0.00144628
-0.00136228
-0.00125393
-0.00116014
-0.00107733
-0.00100504
-0.000935355
-0.000865723
-0.00080728
-0.000755009
-0.000702958
-0.000656039
-0.000614327
-0.00057524
-0.000539846
-0.000508468
-0.000478445
-0.000450669
-0.000425825
-0.000402387
-0.000379083
-0.000357418
-0.000336821
-0.000316312
-0.000295683
-0.000275903
-0.000256047
-0.000236001
-0.000215754
-0.000195812
-0.000175409
-0.000154898
-0.000134115
-0.000113401
-9.22043e-05
-7.10102e-05
-4.94939e-05
-2.80055e-05
-6.10431e-06
1.57318e-05
3.79068e-05
6.00184e-05
8.24893e-05
0.000104872
0.00012758
0.000150182
0.000173138
0.000195992
0.00021914
0.000242179
0.00026561
0.000288901
0.000312465
0.000336011
0.000359982
0.000383719
0.000407824
0.000432108
0.000456729
0.000481037
0.0005061
0.000531506
0.000556903
0.000582262
0.00060913
0.000636016
0.000662487
0.000690113
0.000719806
0.000748176
0.000776603
0.000808266
0.000840637
0.000869546
0.000931797
0.000975104
0.00100855
0.00103646
0.00108173
0.00111871
0.00111529
0.00112587
0.00115526
0.00107183
0.000930905
0.000881842
0.000731516
0.000398904
0.000129873
-0.000236925
-0.000586225
-0.000393073
-0.000275683
-0.000437887
-0.000471551
-0.000594521
-0.000477174
-0.000553912
-0.00106475
-0.00134985
-0.00136533
-0.00143141
-0.00128424
-0.00112553
-0.00108517
-0.00102297
-0.000927569
-0.000862546
-0.000816656
-0.000755883
-0.000694313
-0.000650991
-0.000612079
-0.000567583
-0.000528292
-0.000498722
-0.000469558
-0.000439249
-0.000413431
-0.000391531
-0.000368759
-0.000346307
-0.000326175
-0.000306949
-0.000286787
-0.00026712
-0.000248127
-0.000228982
-0.000209165
-0.00018965
-0.00017
-0.000150051
-0.000129639
-0.000109351
-8.86682e-05
-6.78047e-05
-4.65825e-05
-2.54022e-05
-3.80726e-06
1.78416e-05
3.98076e-05
6.17409e-05
8.40517e-05
0.000106336
0.000128918
0.000151458
0.000174351
0.000197169
0.000220282
0.000243368
0.000266802
0.000290123
0.000313787
0.000337485
0.000361511
0.00038542
0.000409833
0.000434362
0.000459144
0.000483949
0.000509603
0.000535346
0.000561246
0.000587716
0.000615503
0.000642981
0.000670788
0.000700497
0.000731644
0.000761332
0.000792599
0.000828134
0.000863222
0.000894522
0.000965528
0.00100228
0.00105028
0.001101
0.00113581
0.00117221
0.00122568
0.00124528
0.00121033
0.00121837
0.00123115
0.000999404
0.000736798
0.000492026
4.95391e-07
-0.000237554
-0.000346121
-0.000509587
-0.000551219
-0.000355084
-0.00047016
-0.000411203
-0.000360787
-0.00039881
-0.000572116
-0.000842393
-0.00120554
-0.00129994
-0.00122527
-0.0011773
-0.00109178
-0.000993968
-0.000931169
-0.000876861
-0.000807261
-0.000747405
-0.000700354
-0.00064906
-0.000599362
-0.000561122
-0.000525513
-0.000488507
-0.000457138
-0.000431368
-0.000405155
-0.000379846
-0.000358222
-0.00033803
-0.000317074
-0.000297225
-0.000278659
-0.000259929
-0.000240669
-0.000221996
-0.000203312
-0.000184199
-0.000164715
-0.000145386
-0.000125625
-0.000105569
-8.51892e-05
-6.47775e-05
-4.39045e-05
-2.28908e-05
-1.56089e-06
1.98236e-05
4.16017e-05
6.34297e-05
8.55623e-05
0.000107711
0.00013021
0.000152715
0.000175498
0.000198275
0.000221414
0.00024452
0.000267886
0.000291302
0.000315122
0.000338836
0.00036288
0.000387159
0.000411812
0.000436285
0.000461434
0.000487049
0.000512781
0.000538552
0.000565802
0.00059339
0.000620691
0.00064924
0.000680216
0.000710352
0.000740617
0.000774968
0.000811208
0.000844342
0.000881077
0.000924881
0.000992988
0.00103696
0.0010898
0.00114939
0.00119666
0.0012392
0.00130608
0.00135554
0.00134633
0.00136036
0.001379
0.00128068
0.000967939
0.000235894
-0.000325736
-0.000352885
-0.000441965
-0.000486148
-0.000436734
-0.00039083
-0.000465106
-0.00038237
-0.000350911
-0.000371489
-0.000394942
-0.000424323
-0.000741466
-0.00114526
-0.00125949
-0.00117081
-0.00104314
-0.000987427
-0.00094723
-0.000873442
-0.00079782
-0.000746528
-0.000699657
-0.000644633
-0.000594107
-0.00055503
-0.000518785
-0.000481767
-0.000449277
-0.000422492
-0.00039688
-0.000371837
-0.000349542
-0.000329462
-0.000309391
-0.000289758
-0.0002712
-0.000253081
-0.000234524
-0.000216103
-0.00019778
-0.000179264
-0.000160256
-0.000141201
-0.000121846
-0.00010221
-8.21446e-05
-6.19741e-05
-4.14148e-05
-2.06534e-05
4.66184e-07
2.16796e-05
4.32594e-05
6.49476e-05
8.69467e-05
0.000109009
0.0001314
0.000153836
0.000176563
0.000199338
0.000222425
0.000245525
0.000268943
0.000292425
0.000316224
0.000340059
0.000364302
0.000388663
0.000413382
0.000438258
0.000463732
0.000489401
0.000515557
0.000542193
0.000569717
0.000597542
0.000626209
0.000656005
0.000687059
0.000718557
0.000751694
0.000787164
0.000824166
0.000861478
0.000902225
0.000947602
0.00101461
0.00107557
0.00112653
0.00117775
0.00125271
0.00132459
0.00136959
0.00142691
0.00150928
0.00151614
0.00146149
0.00158757
0.0011834
3.6011e-05
-0.000483339
-0.000441597
-0.000399735
-0.000370971
-0.000414757
-0.000474947
-0.000371349
-0.000360361
-0.000419258
-0.000372214
-0.000263249
-0.000260574
-0.000472567
-0.000951839
-0.00118073
-0.00110396
-0.00105929
-0.00100799
-0.000919962
-0.000853039
-0.000812029
-0.00075224
-0.000683852
-0.000637734
-0.000598787
-0.000550322
-0.000507319
-0.000476936
-0.000446528
-0.000414177
-0.000388017
-0.000366472
-0.000343631
-0.000321481
-0.000302554
-0.000284378
-0.000265228
-0.000246877
-0.000229424
-0.000211537
-0.000193063
-0.000174917
-0.000156609
-0.000137775
-0.000118547
-9.93101e-05
-7.96281e-05
-5.95921e-05
-3.92306e-05
-1.87429e-05
2.1737e-06
2.32917e-05
4.47068e-05
6.624e-05
8.81356e-05
0.000110146
0.000132427
0.000154791
0.000177494
0.000200263
0.000223279
0.000246393
0.000269877
0.000293371
0.000317142
0.000341146
0.000365541
0.000389878
0.000414724
0.00044005
0.000465644
0.000491271
0.000518065
0.000545456
0.000572784
0.000600972
0.000631409
0.000661791
0.000692159
0.00072589
0.000762339
0.000796765
0.000833748
0.000878331
0.00092263
0.000963152
0.00103616
0.00109341
0.0011559
0.00121984
0.00129165
0.00137344
0.00144303
0.00150671
0.00160609
0.00166476
0.00165322
0.00171698
0.000706812
-0.000306426
-0.000334163
-0.000402232
-0.000411608
-0.000404384
-0.000414505
-0.000410339
-0.000367321
-0.000387103
-0.000355213
-0.000323349
-0.000288246
-0.000291098
-0.000302112
-0.000687357
-0.00110464
-0.00108327
-0.00106015
-0.00098445
-0.000913135
-0.000861454
-0.000804084
-0.00074216
-0.000687325
-0.000637382
-0.000589689
-0.000546285
-0.000507006
-0.00047118
-0.000439268
-0.000410596
-0.000384035
-0.000359897
-0.000338001
-0.000317383
-0.000297595
-0.000278912
-0.000260847
-0.000242956
-0.000225145
-0.000207545
-0.000189759
-0.00017175
-0.000153478
-0.000135033
-0.000116168
-9.70213e-05
-7.75123e-05
-5.77537e-05
-3.75821e-05
-1.71817e-05
3.57255e-06
2.453e-05
4.58375e-05
6.73081e-05
8.90945e-05
0.000111018
0.000133247
0.000155594
0.000178226
0.000200957
0.000223993
0.000247131
0.00027055
0.00029409
0.000317989
0.000341996
0.000366347
0.000390944
0.00041599
0.000441198
0.000466976
0.000493241
0.000520057
0.000547269
0.000575571
0.000604647
0.000634462
0.000665417
0.000698268
0.000732093
0.000767414
0.000805414
0.000845952
0.000888017
0.000933745
0.000983515
0.00105155
0.00110381
0.00117583
0.001256
0.00132006
0.00139289
0.00149955
0.00160217
0.00166701
0.00173213
0.00186685
0.00157591
0.000297162
-0.000408494
-0.000288579
-0.000370079
-0.000429472
-0.000419469
-0.000373944
-0.000359767
-0.000408568
-0.000392463
-0.000308897
-0.000308866
-0.00032219
-0.000258274
-0.000217713
-0.000499854
-0.000978259
-0.00110456
-0.00101675
-0.000953408
-0.000928301
-0.000870269
-0.00078751
-0.000733679
-0.000694568
-0.000637311
-0.000580665
-0.000543175
-0.000508198
-0.000467415
-0.000433451
-0.000408106
-0.000381942
-0.000355467
-0.000333828
-0.00031469
-0.000294506
-0.000275141
-0.000257736
-0.00024039
-0.000222327
-0.000204756
-0.00018747
-0.000169649
-0.00015135
-0.000133113
-0.000114538
-9.54757e-05
-7.60474e-05
-5.64707e-05
-3.64528e-05
-1.611e-05
4.54844e-06
2.53904e-05
4.66173e-05
6.80491e-05
8.97619e-05
0.000111623
0.000133817
0.000156149
0.000178732
0.000201444
0.00022449
0.000247631
0.000271019
0.000294603
0.000318562
0.000342566
0.000366932
0.00039169
0.000416817
0.000441997
0.000467959
0.000494557
0.000521358
0.000548616
0.000577552
0.000607023
0.000636564
0.000668143
0.000702407
0.000736131
0.00077111
0.00081166
0.000854202
0.000894455
0.000941568
0.000998408
0.0010564
0.00112272
0.00118551
0.00125434
0.00134183
0.00143181
0.00151533
0.00161023
0.00171079
0.00184988
0.00200782
0.00144212
0.000341385
-0.000372835
-0.00042738
-0.000380965
-0.000358784
-0.000386766
-0.000406476
-0.000397949
-0.00036513
-0.000338614
-0.000356924
-0.000320479
-0.000280754
-0.000248095
-0.000197458
-0.000443125
-0.000842221
-0.00104953
-0.00102297
-0.000982471
-0.000909255
-0.000846358
-0.000802154
-0.000744017
-0.000679461
-0.000631335
-0.000589663
-0.0005423
-0.000499743
-0.000467197
-0.000435955
-0.00040442
-0.000377991
-0.000355549
-0.000333022
-0.00031152
-0.00029259
-0.000274516
-0.000256076
-0.000238295
-0.000221173
-0.000203795
-0.000186018
-0.000168367
-0.000150516
-0.000132212
-0.000113526
-9.46852e-05
-7.54198e-05
-5.57862e-05
-3.58027e-05
-1.5599e-05
5.00796e-06
2.58675e-05
4.70387e-05
6.83972e-05
9.00948e-05
0.000111966
0.000134112
0.000156401
0.000179002
0.000201732
0.000224717
0.000247849
0.000271319
0.000294892
0.000318754
0.00034287
0.000367377
0.000391978
0.000417068
0.000442638
0.000468601
0.0004948
0.000522032
0.000549954
0.000578209
0.000607424
0.000638602
0.000670284
0.000702656
0.000738006
0.000775974
0.000813647
0.000854448
0.000901587
0.000949894
0.000998129
0.0010564
0.00112272
0.00118551
0.00125434
0.00134183
0.00143181
0.00151533
0.00161023
0.00171079
0.00184988
0.00200782
0.00144212
0.000341385
-0.000372835
-0.00042738
-0.000380965
-0.000358784
-0.000386766
-0.000406476
-0.000397949
-0.00036513
-0.000338614
-0.000356924
-0.000320479
-0.000280754
-0.000248095
-0.000197458
-0.000443125
-0.000842221
-0.00104953
-0.00102297
-0.000982471
-0.000909255
-0.000846358
-0.000802154
-0.000744017
-0.000679461
-0.000631335
-0.000589663
-0.0005423
-0.000499743
-0.000467197
-0.000435955
-0.00040442
-0.000377991
-0.000355549
-0.000333022
-0.00031152
-0.00029259
-0.000274516
-0.000256076
-0.000238295
-0.000221173
-0.000203795
-0.000186018
-0.000168367
-0.000150516
-0.000132212
-0.000113526
-9.46852e-05
-7.54198e-05
-5.57862e-05
-3.58027e-05
-1.5599e-05
5.00796e-06
2.58675e-05
4.70387e-05
6.83972e-05
9.00948e-05
0.000111966
0.000134112
0.000156401
0.000179002
0.000201732
0.000224717
0.000247849
0.000271319
0.000294892
0.000318754
0.00034287
0.000367377
0.000391978
0.000417068
0.000442638
0.000468601
0.0004948
0.000522032
0.000549954
0.000578209
0.000607424
0.000638602
0.000670284
0.000702656
0.000738006
0.000775974
0.000813647
0.000854448
0.000901587
0.000949894
0.000998129
0.00105155
0.00110381
0.00117583
0.001256
0.00132006
0.00139289
0.00149955
0.00160217
0.00166701
0.00173213
0.00186685
0.00157591
0.000297162
-0.000408494
-0.000288579
-0.000370079
-0.000429472
-0.000419469
-0.000373944
-0.000359767
-0.000408568
-0.000392463
-0.000308897
-0.000308866
-0.00032219
-0.000258274
-0.000217713
-0.000499854
-0.000978259
-0.00110456
-0.00101675
-0.000953408
-0.000928301
-0.000870269
-0.00078751
-0.000733679
-0.000694568
-0.000637311
-0.000580665
-0.000543175
-0.000508198
-0.000467415
-0.000433451
-0.000408106
-0.000381942
-0.000355467
-0.000333828
-0.00031469
-0.000294506
-0.000275141
-0.000257736
-0.00024039
-0.000222327
-0.000204756
-0.00018747
-0.000169649
-0.00015135
-0.000133113
-0.000114538
-9.54757e-05
-7.60474e-05
-5.64707e-05
-3.64528e-05
-1.611e-05
4.54844e-06
2.53904e-05
4.66173e-05
6.80491e-05
8.97619e-05
0.000111623
0.000133817
0.000156149
0.000178732
0.000201444
0.00022449
0.000247631
0.000271019
0.000294603
0.000318562
0.000342566
0.000366932
0.00039169
0.000416817
0.000441997
0.000467959
0.000494557