# vtk DataFile Version 3.0
fluid_state
ASCII
DATASET RECTILINEAR_GRID
DIMENSIONS 100 40 1
X_COORDINATES 100 float
0.5 1.5 2.5 3.5 4.5 5.5 6.5 7.5 8.5 9.5 10.5 11.5 12.5 13.5 14.5 15.5 16.5 17.5 18.5 19.5 20.5 21.5 22.5 23.5 24.5 25.5 26.5 27.5 28.5 29.5 30.5 31.5 32.5 33.5 34.5 35.5 36.5 37.5 38.5 39.5 40.5 41.5 42.5 43.5 44.5 45.5 46.5 47.5 48.5 49.5 50.5 51.5 52.5 53.5 54.5 55.5 56.5 57.5 58.5 59.5 60.5 61.5 62.5 63.5 64.5 65.5 66.5 67.5 68.5 69.5 70.5 71.5 72.5 73.5 74.5 75.5 76.5 77.5 78.5 79.5 80.5 81.5 82.5 83.5 84.5 85.5 86.5 87.5 88.5 89.5 90.5 91.5 92.5 93.5 94.5 95.5 96.5 97.5 98.5 99.5 
Y_COORDINATES 40 float
0.5 1.5 2.5 3.5 4.5 5.5 6.5 7.5 8.5 9.5 10.5 11.5 12.5 13.5 14.5 15.5 16.5 17.5 18.5 19.5 20.5 21.5 22.5 23.5 24.5 25.5 26.5 27.5 28.5 29.5 30.5 31.5 32.5 33.5 34.5 35.5 36.5 37.5 38.5 39.5 
Z_COORDINATES 1 float
0
POINT_DATA 4000
SCALARS density_difference float 1
LOOKUP_TABLE default
0.00075275
0.000761267
0.000768278
0.000773137
0.000772785
0.000764755
0.000748944
0.000731201
0.000704014
0.000655887
0.000605201
0.000550222
0.000465847
0.000373432
0.000281671
0.000166205
4.52287e-05
-7.21645e-05
-0.000201584
-0.000321826
-0.00042884
-0.000542873
-0.000634723
-0.000703608
-0.000775846
-0.000827255
-0.000854529
-0.000883503
-0.000898657
-0.000895397
-0.00089223
-0.000884783
-0.000866273
-0.000843334
-0.000821689
-0.000798392
-0.000769079
-0.000738802
-0.000711959
-0.000683689
-0.000652001
-0.000622081
-0.000594554
-0.000565525
-0.000535573
-0.000507739
-0.000480893
-0.000453149
-0.000425738
-0.000399839
-0.000374167
-0.000348204
-0.000322905
-0.000298437
-0.000273925
-0.000249484
-0.000225587
-0.000202041
-0.000178415
-0.000154977
-0.000131835
-0.00010879
-8.56895e-05
-6.27405e-05
-3.98773e-05
-1.7015e-05
5.89683e-06
2.87494e-05
5.16279e-05
7.45264e-05
9.75089e-05
0.000120503
0.000143539
0.000166609
0.000189822
0.000213038
0.000236256
0.00025957
0.000283056
0.000306414
0.000329758
0.000353336
0.00037696
0.000400209
0.000423603
0.000447343
0.000470661
0.000493421
0.000516785
0.000540202
0.000562306
0.000584187
0.000607162
0.000628829
0.00064838
0.000668882
0.000689722
0.000706756
0.000722164
0.000738955
0.000743614
0.000752047
0.000758447
0.000761334
0.000758655
0.000746138
0.000731469
0.000715549
0.000677155
0.000626412
0.000587305
0.000523469
0.000428604
0.000347364
0.000260726
0.000138841
1.65069e-05
-8.89841e-05
-0.000208323
-0.000335509
-0.000436475
-0.000534196
-0.000629732
-0.000693733
-0.00075448
-0.000814256
-0.000836335
-0.000852103
-0.00087856
-0.00088031
-0.000865348
-0.000858675
-0.000850272
-0.000828095
-0.000800581
-0.000779751
-0.000757848
-0.000727417
-0.000697042
-0.000672165
-0.000644925
-0.00061387
-0.000585079
-0.000559065
-0.000531009
-0.000502152
-0.000475351
-0.000449617
-0.000422701
-0.000396247
-0.000371062
-0.000346197
-0.000320826
-0.000296208
-0.00027217
-0.000248218
-0.000224122
-0.000200661
-0.000177332
-0.000154066
-0.000130773
-0.000107893
-8.49127e-05
-6.20208e-05
-3.90868e-05
-1.6378e-05
6.5301e-06
2.93275e-05
5.22271e-05
7.50245e-05
9.80445e-05
0.000120935
0.000143993
0.000167018
0.00019023
0.000213291
0.000236596
0.000259874
0.000283235
0.000306452
0.000330001
0.00035341
0.000376738
0.000400029
0.000423686
0.000446865
0.000469845
0.000493041
0.000516362
0.000538596
0.000560784
0.000583426
0.000605289
0.000625401
0.00064606
0.000666696
0.000684806
0.000701035
0.000718006
0.000732805
0.000737648
0.000748762
0.000753325
0.000751136
0.0007477
0.000740618
0.000724162
0.000693874
0.000660159
0.000625514
0.000564499
0.000486248
0.000422351
0.000333041
0.000214517
0.000114538
4.84057e-06
-0.000126678
-0.000238286
-0.00034968
-0.000465358
-0.00054915
-0.000632376
-0.00071493
-0.000758257
-0.000796378
-0.000839537
-0.000853601
-0.000855706
-0.00086326
-0.000860364
-0.000845204
-0.000827386
-0.000812885
-0.000792717
-0.00076497
-0.000739467
-0.000717258
-0.000689541
-0.000659602
-0.000633168
-0.000607539
-0.000578541
-0.000550299
-0.000524253
-0.00049798
-0.000470325
-0.000444165
-0.0004189
-0.000393364
-0.000367543
-0.000343002
-0.000318593
-0.000294167
-0.000269842
-0.000246357
-0.000222679
-0.000199202
-0.000175819
-0.000152918
-0.000129739
-0.000106843
-8.38987e-05
-6.12377e-05
-3.82898e-05
-1.56068e-05
7.25157e-06
2.99107e-05
5.28651e-05
7.56038e-05
9.85769e-05
0.000121384
0.000144513
0.000167441
0.000190602
0.000213637
0.000237009
0.000260113
0.000283439
0.000306719
0.000330255
0.000353365
0.000376779
0.000400213
0.000423593
0.000446398
0.000469781
0.000492996
0.000515519
0.000537625
0.000560673
0.000582608
0.000603111
0.000624048
0.000645611
0.000663913
0.000680864
0.000699368
0.000715914
0.000726735
0.000738441
0.000745209
0.000749268
0.000750598
0.000745516
0.000735936
0.000719073
0.000687727
0.000656908
0.000617568
0.000546546
0.00047597
0.000410498
0.000303562
0.000185944
8.47442e-05
-3.13327e-05
-0.000169646
-0.000291475
-0.000392788
-0.000506913
-0.000603566
-0.000671263
-0.000745089
-0.000794369
-0.000814442
-0.00084945
-0.000870592
-0.000859046
-0.000855839
-0.000856446
-0.000842184
-0.000817922
-0.000798155
-0.000781421
-0.000757039
-0.00072724
-0.000703056
-0.000679646
-0.000651422
-0.0006224
-0.000597301
-0.000571355
-0.000543488
-0.000516365
-0.000491398
-0.000465386
-0.000439098
-0.000413668
-0.000389328
-0.000364184
-0.000339486
-0.000315316
-0.000291689
-0.000267537
-0.000244028
-0.000220663
-0.000197612
-0.00017422
-0.000151409
-0.000128457
-0.000105755
-8.27795e-05
-6.02451e-05
-3.741e-05
-1.48215e-05
8.04609e-06
3.06017e-05
5.35208e-05
7.61787e-05
9.91572e-05
0.000121909
0.000145015
0.000167845
0.000191055
0.000214062
0.000237351
0.000260376
0.000283843
0.000307027
0.000330382
0.000353557
0.000377174
0.000400266
0.000423469
0.000446659
0.000470062
0.000492532
0.000515271
0.00053809
0.000560398
0.000581409
0.000603166
0.000624489
0.00064395
0.000662288
0.0006817
0.000698616
0.000712357
0.00072584
0.000740551
0.000745155
0.000752003
0.000756029
0.000749096
0.00073471
0.000719319
0.000697906
0.000658204
0.000598173
0.000546988
0.000485543
0.000370513
0.000265105
0.000181545
3.46185e-05
-0.000111248
-0.000218649
-0.000355129
-0.000485356
-0.000577215
-0.000684573
-0.000756377
-0.000792123
-0.000851686
-0.000886122
-0.000875381
-0.000883029
-0.000891942
-0.000876816
-0.000852009
-0.000836568
-0.000823618
-0.000796527
-0.000765695
-0.000745962
-0.000723485
-0.000692733
-0.000664576
-0.00064209
-0.000615519
-0.000586572
-0.000560589
-0.000536537
-0.000509657
-0.000483175
-0.00045845
-0.000434133
-0.00040837
-0.000383808
-0.000359881
-0.000336014
-0.000311559
-0.000288232
-0.000264858
-0.00024163
-0.00021816
-0.0001955
-0.000172492
-0.000149765
-0.000126832
-0.000104438
-8.16054e-05
-5.91149e-05
-3.6343e-05
-1.39528e-05
8.89176e-06
3.1396e-05
5.42516e-05
7.67996e-05
9.98072e-05
0.000122486
0.000145544
0.000168338
0.000191589
0.000214484
0.000237764
0.000260828
0.000284295
0.000307318
0.000330771
0.000354042
0.000377522
0.000400462
0.000423983
0.000447206
0.000470229
0.000492778
0.000516134
0.00053861
0.000560342
0.000582118
0.000604595
0.000624715
0.000643947
0.000664242
0.000683637
0.000698344
0.000713426
0.000729705
0.000743347
0.000755835
0.000761941
0.000758857
0.000757734
0.000750008
0.000727781
0.000702329
0.000664789
0.00060626
0.000549591
0.000466825
0.000351433
0.000250777
0.000128024
-3.00284e-05
-0.000175961
-0.000311666
-0.000452343
-0.000600916
-0.000699584
-0.000785078
-0.00086927
-0.000905461
-0.000926516
-0.000959351
-0.000947401
-0.000927368
-0.000923521
-0.000903604
-0.000873861
-0.000845442
-0.000821
-0.000797624
-0.000766388
-0.00073631
-0.000711589
-0.000685915
-0.000656173
-0.000629173
-0.000604207
-0.000578271
-0.000550895
-0.000525836
-0.00050113
-0.000475967
-0.000450471
-0.000426665
-0.000402486
-0.000378341
-0.000354233
-0.000331226
-0.000307622
-0.000284403
-0.00026119
-0.000238657
-0.000215541
-0.000192961
-0.000170203
-0.000147899
-0.000125087
-0.000102801
-8.01653e-05
-5.78982e-05
-3.51667e-05
-1.28838e-05
9.84986e-06
3.22301e-05
5.5074e-05
7.75488e-05
0.0001005
0.000123091
0.000146177
0.000168934
0.000192128
0.00021497
0.000238353
0.000261364
0.000284736
0.000307824
0.000331454
0.000354539
0.000377955
0.000401224
0.00042485
0.000447646
0.000470938
0.000494152
0.000517145
0.000539114
0.00056204
0.000584436
0.000605556
0.000626038
0.000647902
0.000667421
0.000684622
0.000702671
0.000720885
0.00073286
0.000755133
0.000768504
0.000772684
0.00077262
0.000775003
0.000767485
0.000745056
0.000713429
0.000677771
0.000632243
0.000546535
0.000435483
0.000362251
0.000234492
2.82571e-05
-9.46762e-05
-0.000231643
-0.000450287
-0.000599655
-0.000720997
-0.000862145
-0.000929503
-0.000993828
-0.00106606
-0.00104291
-0.00101881
-0.0010421
-0.00101616
-0.000961395
-0.00092512
-0.000906305
-0.000874446
-0.000824598
-0.000792687
-0.000771039
-0.000736668
-0.000699682
-0.000674782
-0.000649811
-0.000619163
-0.000590546
-0.000567364
-0.00054184
-0.000514932
-0.000490112
-0.000467291
-0.000442427
-0.000418036
-0.000394778
-0.000372128
-0.000348202
-0.00032528
-0.00030262
-0.000280194
-0.000257057
-0.000234857
-0.000212398
-0.000190186
-0.000167512
-0.000145552
-0.000123103
-0.000100984
-7.84472e-05
-5.64366e-05
-3.3867e-05
-1.16737e-05
1.09682e-05
3.31952e-05
5.59907e-05
7.83955e-05
0.000101282
0.000123813
0.000146902
0.000169583
0.000192765
0.000215631
0.000239012
0.000261945
0.000285413
0.000308579
0.000332144
0.00035522
0.000378912
0.000402225
0.00042571
0.000448751
0.000472518
0.000495577
0.000518509
0.000541279
0.00056471
0.000586613
0.000608271
0.000630359
0.000652254
0.000671164
0.000690507
0.000710654
0.000727661
0.000740175
0.000772311
0.000778725
0.000789699
0.000802191
0.000795721
0.000781092
0.000776123
0.000748345
0.00069388
0.000641987
0.000563053
0.000453325
0.000337097
0.000169747
3.47149e-06
-0.000165299
-0.000379512
-0.000568258
-0.000749313
-0.000888994
-0.00104112
-0.00113553
-0.00115203
-0.00117786
-0.0011994
-0.00115165
-0.00111635
-0.00107648
-0.00102696
-0.000984214
-0.000928356
-0.000885706
-0.000849642
-0.000804636
-0.000763453
-0.000732926
-0.000700526
-0.000665993
-0.000635699
-0.000609701
-0.000581519
-0.000553857
-0.000528733
-0.000504956
-0.000479531
-0.000455532
-0.000432535
-0.000409741
-0.000386037
-0.000363752
-0.00034142
-0.000319157
-0.000296455
-0.000274793
-0.000252604
-0.00023067
-0.000208418
-0.000186847
-0.000164636
-0.000142828
-0.000120636
-9.89194e-05
-7.65862e-05
-5.46944e-05
-3.23232e-05
-1.03491e-05
1.22071e-05
3.43489e-05
5.70224e-05
7.93129e-05
0.000102182
0.000124668
0.000147681
0.000170316
0.000193554
0.000216394
0.000239714
0.000262705
0.000286307
0.000309402
0.000332958
0.000356301
0.000380138
0.000403265
0.000427001
0.000450619
0.00047431
0.000497172
0.000521077
0.000544586
0.00056736
0.000589712
0.000613641
0.00063581
0.000656427
0.000678169
0.000700948
0.000718623
0.000735451
0.000755918
0.000787585
0.000801381
0.000817196
0.000825016
0.000822763
0.000819346
0.000809365
0.000779475
0.000732723
0.000663212
0.000585425
0.000491159
0.000296893
0.000107429
1.30672e-05
-0.000263524
-0.000546564
-0.000667866
-0.000904575
-0.00111327
-0.00120312
-0.00133025
-0.00137076
-0.00129006
-0.00131833
-0.00131191
-0.00119676
-0.00112857
-0.00108927
-0.00104194
-0.000964589
-0.000898884
-0.000864284
-0.000821013
-0.000766282
-0.00072739
-0.000697045
-0.000661049
-0.000624984
-0.000597406
-0.000570757
-0.000542121
-0.000515225
-0.000492279
-0.000468268
-0.000443983
-0.000420989
-0.00039963
-0.000376967
-0.000354781
-0.000333117
-0.000312067
-0.000289993
-0.000268621
-0.00024717
-0.000226014
-0.000204122
-0.00018289
-0.000161237
-0.000139852
-0.000117885
-9.6459e-05
-7.44644e-05
-5.27859e-05
-3.05705e-05
-8.79358e-06
1.3593e-05
3.56227e-05
5.81923e-05
8.03876e-05
0.000103188
0.000125604
0.000148577
0.000171212
0.00019442
0.000217218
0.000240607
0.000263665
0.000287223
0.000310371
0.000334161
0.00035756
0.000381353
0.000404801
0.000428931
0.000452478
0.000476337
0.000500032
0.000524306
0.000547628
0.000571335
0.000595128
0.000619012
0.000641408
0.000664595
0.00068789
0.000709902
0.000729862
0.000751482
0.000771843
0.000808039
0.000833602
0.000845868
0.000847959
0.000865394
0.000872757
0.000840319
0.000813699
0.000798693
0.00071685
0.000599908
0.000497279
0.000333676
0.000126306
-0.000121586
-0.000368414
-0.000516027
-0.000804319
-0.00109455
-0.0013155
-0.00138411
-0.0014568
-0.00154633
-0.00152848
-0.00140503
-0.00134589
-0.00128447
-0.00124149
-0.00114675
-0.00104491
-0.00100195
-0.000945659
-0.000868965
-0.000817645
-0.000780002
-0.000732772
-0.000686012
-0.000652566
-0.000621039
-0.000586382
-0.000555517
-0.000530622
-0.000504274
-0.000477885
-0.000454465
-0.000432936
-0.000409665
-0.000387508
-0.0003666
-0.000345941
-0.000324155
-0.000303531
-0.000282927
-0.00026228
-0.000240984
-0.000220524
-0.000199534
-0.000178647
-0.000157278
-0.000136452
-0.000114959
-9.37255e-05
-7.20031e-05
-5.06704e-05
-2.8685e-05
-7.02715e-06
1.51618e-05
3.70097e-05
5.94804e-05
8.16112e-05
0.000104289
0.000126633
0.000149597
0.000172209
0.000195349
0.000218182
0.000241644
0.000264689
0.000288252
0.000311595
0.000335511
0.000358881
0.000382876
0.000406762
0.000430969
0.000454543
0.000479103
0.000503464
0.000527595
0.000551401
0.00057677
0.000601117
0.000624601
0.000649048
0.000675138
0.000697874
0.000720116
0.000745883
0.000770425
0.000787383
0.000837176
0.000858117
0.0008768
0.000896261
0.000909211
0.000907199
0.000902465
0.000888569
0.000839422
0.000770986
0.000677209
0.000516563
0.000375097
0.000184541
-0.000240213
-0.000426861
-0.000487892
-0.00088851
-0.00111399
-0.00138238
-0.00167164
-0.00170177
-0.00158559
-0.00163493
-0.00150419
-0.00140636
-0.00138465
-0.00128774
-0.00118546
-0.0010853
-0.00101939
-0.000961039
-0.000887574
-0.000827231
-0.000780529
-0.000732404
-0.000684961
-0.000646058
-0.000611239
-0.00057692
-0.000544614
-0.000517134
-0.000491163
-0.000465642
-0.000441274
-0.000419547
-0.000397858
-0.000376376
-0.000355359
-0.000335604
-0.0003152
-0.000295032
-0.000274856
-0.000255213
-0.00023479
-0.000214685
-0.000194258
-0.000174088
-0.000153213
-0.000132684
-0.000111655
-9.08348e-05
-6.93958e-05
-4.82865e-05
-2.66018e-05
-5.15744e-06
1.68607e-05
3.85769e-05
6.0884e-05
8.29079e-05
0.000105498
0.000127808
0.000150689
0.000173257
0.000196414
0.000219293
0.000242696
0.000265795
0.000289529
0.000312933
0.000336818
0.000360484
0.000384805
0.000408666
0.000433055
0.000457397
0.000482268
0.000506526
0.000531591
0.000556728
0.000582004
0.000606722
0.000632768
0.000658592
0.000683964
0.000709297
0.000736271
0.000761822
0.000786296
0.000811462
0.000866176
0.000885855
0.000916236
0.000947721
0.000952692
0.000955669
0.000983759
0.000965949
0.000886992
0.000849798
0.000791921
0.000587266
0.000382752
0.000227698
-4.62012e-05
-0.000423385
-0.000827175
-0.0007868
-0.000923192
-0.00126824
-0.00130098
-0.00160633
-0.00170282
-0.00148553
-0.00156799
-0.00157599
-0.00147839
-0.00126032
-0.00118923
-0.00115669
-0.0010372
-0.000946479
-0.000904868
-0.000847092
-0.000776021
-0.000726682
-0.000688405
-0.000642354
-0.000598711
-0.00056732
-0.000537094
-0.000504413
-0.00047641
-0.00045386
-0.000429824
-0.000405894
-0.000384974
-0.000365608
-0.000344677
-0.00032462
-0.000305622
-0.000286697
-0.000266731
-0.000247553
-0.000228281
-0.00020884
-0.000188731
-0.000169134
-0.00014899
-0.000128814
-0.000108108
-8.77207e-05
-6.66906e-05
-4.57774e-05
-2.43527e-05
-3.16703e-06
1.86409e-05
4.02512e-05
6.23811e-05
8.42854e-05
0.000106788
0.000129053
0.000151834
0.000174397
0.000197554
0.00022043
0.000243822
0.000267041
0.000290842
0.000314285
0.000338315
0.000362267
0.000386689
0.0004107
0.000435553
0.000460361
0.000485347
0.000510116
0.000536219
0.000561931
0.000587433
0.000613611
0.000641551
0.000667823
0.000694016
0.000722946
0.0007527
0.000778021
0.000805647
0.000838616
0.000892582
0.00092819
0.00095837
0.000982667
0.00101335
0.00103884
0.00103667
0.00102615
0.00102726
0.000961997
0.000818966
0.00071787
0.000549443
0.00026158
0.000202717
-0.000296345
-0.00108585
-0.000478472
-0.000426342
-0.00100038
-0.00051395
-0.000948204
-0.00116927
-0.000980184
-0.00154141
-0.00165603
-0.00141126
-0.00132857
-0.00122207
-0.00112941
-0.00104772
-0.000976602
-0.000907985
-0.000839657
-0.000782501
-0.000731619
-0.000681009
-0.000635697
-0.000595551
-0.000558146
-0.000524371
-0.000494705
-0.000466302
-0.000440225
-0.000416953
-0.000395161
-0.000373379
-0.000353304
-0.000334153
-0.000315166
-0.000295919
-0.000277594
-0.000259043
-0.000240381
-0.000221365
-0.00020273
-0.000183475
-0.000164189
-0.000144464
-0.000124883
-0.000104647
-8.44848e-05
-6.38217e-05
-4.32552e-05
-2.20914e-05
-1.05919e-06
2.05021e-05
4.19351e-05
6.39218e-05
8.57559e-05
0.000108114
0.000130302
0.000153042
0.000175616
0.000198684
0.000221577
0.000245061
0.000268334
0.00029208
0.000315731
0.000340003
0.000363961
0.00038848
0.000413088
0.000438218
0.000462946
0.000488607
0.000514501
0.000540567
0.000566484
0.000594064
0.000621539
0.000648768
0.000677011
0.000707446
0.000736435
0.000765629
0.000797867
0.000830933
0.000860437
0.000922772
0.000966446
0.00100044
0.00102881
0.00107449
0.00111181
0.00110929
0.00112053
0.00115063
0.00106931
0.000931369
0.000884863
0.000738986
0.000411992
0.000146699
-0.000218312
-0.000567111
-0.000377894
-0.000261585
-0.000422405
-0.000455856
-0.000577509
-0.000460532
-0.000534383
-0.00103825
-0.00131776
-0.00133231
-0.00139788
-0.00125225
-0.00109548
-0.00105584
-0.000994596
-0.000900374
-0.000836503
-0.000791755
-0.000732399
-0.000672346
-0.000630573
-0.000593206
-0.000550435
-0.000512834
-0.00048497
-0.00045745
-0.000428873
-0.000404678
-0.000384422
-0.000363195
-0.000342344
-0.000323682
-0.000305966
-0.000287198
-0.000268978
-0.000251296
-0.000233514
-0.000214932
-0.000196705
-0.000178202
-0.000159456
-0.000140104
-0.000120927
-0.000101203
-8.13514e-05
-6.09828e-05
-4.07051e-05
-1.9848e-05
1.01431e-06
2.23645e-05
4.36353e-05
6.54588e-05
8.72086e-05
0.000109436
0.000131574
0.000154247
0.000176795
0.000199823
0.000222771
0.000246249
0.000269561
0.000293397
0.000317206
0.000341522
0.000365656
0.00039047
0.000415324
0.000440603
0.000465824
0.000492058
0.000518287
0.000544834
0.000571849
0.000600324
0.000628379
0.000656907
0.000687205
0.000719061
0.000749334
0.000781304
0.000817368
0.00085309
0.000884909
0.00095586
0.000993013
0.00104137
0.00109223
0.00112746
0.00116418
0.00121779
0.00123777
0.00120426
0.00121326
0.00122702
0.00100005
0.000742983
0.000501465
1.34727e-05
-0.000224318
-0.000332523
-0.00049343
-0.000534342
-0.000340555
-0.000454464
-0.000395318
-0.000345414
-0.000383866
-0.000554617
-0.000819549
-0.00117601
-0.00126798
-0.00119445
-0.00114752
-0.00106264
-0.000965836
-0.000904101
-0.000850782
-0.000782379
-0.000723903
-0.000678258
-0.000628536
-0.000580479
-0.000543923
-0.000509984
-0.000474745
-0.00044508
-0.000421019
-0.000396453
-0.000372827
-0.000352777
-0.00033417
-0.000314709
-0.000296378
-0.000279215
-0.000261916
-0.00024398
-0.000226661
-0.000209212
-0.00019137
-0.000173038
-0.000154893
-0.00013619
-0.000117227
-9.78081e-05
-7.8389e-05
-5.83696e-05
-3.82417e-05
-1.76513e-05
2.96351e-06
2.41237e-05
4.53036e-05
6.69456e-05
8.8574e-05
0.000110713
0.000132828
0.000155386
0.000177904
0.00020095
0.000223927
0.000247331
0.000270745
0.000294727
0.000318558
0.000342883
0.00036739
0.000392429
0.000417232
0.000442865
0.00046889
0.000495185
0.000521444
0.000549316
0.000577432
0.000605406
0.000634524
0.000666169
0.000696872
0.000727833
0.000762719
0.000799574
0.000833231
0.000870562
0.000914734
0.000982813
0.00102704
0.00108014
0.00113975
0.0011872
0.00122985
0.00129667
0.00134619
0.00133778
0.00135235
0.00137226
0.00127698
0.000968586
0.000243856
-0.000312364
-0.00033915
-0.000426902
-0.000470563
-0.000421499
-0.000375629
-0.000449039
-0.000367244
-0.000336185
-0.000356409
-0.000379219
-0.000407913
-0.000719746
-0.00111695
-0.00122916
-0.00114129
-0.00101485
-0.000959656
-0.000920074
-0.000847377
-0.000773033
-0.000723
-0.000677474
-0.000624034
-0.000575167
-0.000537772
-0.000503214
-0.000467969
-0.000437213
-0.000412156
-0.000388213
-0.00036486
-0.000344167
-0.000325681
-0.000307119
-0.000289005
-0.000271867
-0.000255172
-0.000237947
-0.000220871
-0.000203789
-0.000186531
-0.000168678
-0.000150794
-0.000132498
-0.000113939
-9.48364e-05
-7.56437e-05
-5.59393e-05
-3.60487e-05
-1.56706e-05
4.78698e-06
2.57462e-05
4.67996e-05
6.83045e-05
8.98582e-05
0.000111886
0.000133942
0.000156439
0.000178965
0.000201952
0.000224933
0.00024838
0.000271867
0.000295821
0.000319779
0.000344293
0.000368887
0.000393982
0.000419189
0.000445132
0.000471216
0.000497919
0.000525036
0.000553165
0.000581519
0.000610829
0.000641176
0.000672885
0.000704932
0.00073871
0.000774695
0.000812287
0.000850054
0.000891317
0.000937037
0.00100401
0.00106503
0.00111617
0.00116745
0.00124227
0.00131383
0.00135885
0.00141602
0.00149803
0.00150548
0.00145271
0.00157822
0.00117861
4.42572e-05
-0.000468939
-0.000427372
-0.000385272
-0.000356538
-0.000399714
-0.000459054
-0.000356328
-0.000345513
-0.000403746
-0.000357101
-0.000249272
-0.000246164
-0.00045572
-0.000928749
-0.00115225
-0.00107506
-0.00103103
-0.000980362
-0.000893174
-0.000827203
-0.000787142
-0.000728616
-0.000661739
-0.000617137
-0.000579731
-0.000532998
-0.00049176
-0.000463108
-0.000434419
-0.000403844
-0.000379387
-0.000359511
-0.000338288
-0.000317758
-0.000300353
-0.000283684
-0.00026597
-0.000249049
-0.000232931
-0.000216379
-0.000199156
-0.00018226
-0.000165107
-0.000147433
-0.000129269
-0.000111097
-9.23773e-05
-7.33077e-05
-5.38033e-05
-3.41739e-05
-1.40002e-05
6.37294e-06
2.7165e-05
4.80746e-05
6.94731e-05
9.09849e-05
0.000112899
0.000134893
0.00015736
0.000179888
0.0002028
0.000225802
0.000249309
0.000272814
0.000296733
0.000320865
0.000345521
0.000370096
0.00039531
0.000420968
0.000447019
0.000473064
0.000500392
0.000528256
0.000556178
0.000584893
0.000615946
0.000646864
0.000677877
0.00071214
0.000749175
0.000784105
0.000821662
0.000866627
0.00091136
0.000952236
0.00102517
0.0010825
0.00114502
0.00120883
0.00128044
0.00136176
0.00143102
0.00149431
0.00159297
0.00165157
0.00164102
0.0017046
0.000706494
-0.00029436
-0.000321665
-0.000388572
-0.000397257
-0.000389714
-0.000399381
-0.000395272
-0.000352547
-0.000371941
-0.000340262
-0.00030868
-0.000274229
-0.000276698
-0.000287105
-0.000666498
-0.00107712
-0.00105548
-0.0010322
-0.000957084
-0.000886527
-0.000835661
-0.000779286
-0.000718608
-0.00066516
-0.00061673
-0.000570646
-0.000528937
-0.000491384
-0.000457325
-0.000427164
-0.000400244
-0.000375393
-0.000352953
-0.000332687
-0.000313679
-0.00029543
-0.000278265
-0.00026164
-0.000245174
-0.00022871
-0.000212443
-0.000195909
-0.000179144
-0.000162033
-0.00014474
-0.00012694
-0.000108851
-9.03064e-05
-7.15051e-05
-5.21916e-05
-3.26414e-05
-1.26318e-05
7.58963e-06
2.82722e-05
4.9127e-05
7.04138e-05
9.18463e-05
0.000113705
0.000135689
0.000158082
0.000180579
0.000203506
0.000226537
0.000249975
0.000273532
0.000297573
0.000321712
0.00034632
0.000371156
0.000396562
0.000422106
0.000448334
0.000475013
0.000502353
0.000530045
0.000558924
0.000588516
0.000618941
0.000650432
0.000683891
0.000718236
0.000754147
0.000792615
0.000833664
0.000876123
0.000922262
0.000972271
0.00104029
0.00109265
0.0011646
0.00124443
0.00130828
0.00138068
0.00148659
0.00158826
0.00165258
0.00171739
0.00185112
0.00156404
0.000301197
-0.000395582
-0.000276952
-0.000356614
-0.00041488
-0.000404849
-0.00035947
-0.000345148
-0.000393314
-0.000377416
-0.000294573
-0.00029416
-0.00030751
-0.000244797
-0.00020374
-0.000481016
-0.000952862
-0.0010768
-0.000989425
-0.000926618
-0.000901745
-0.000844401
-0.000762848
-0.00071024
-0.000672351
-0.000616614
-0.000561654
-0.000525824
-0.000492527
-0.000453541
-0.000421355
-0.000397742
-0.000373286
-0.000348531
-0.000328532
-0.000310995
-0.000292359
-0.000274522
-0.000258561
-0.000242635
-0.000225926
-0.000209689
-0.000193656
-0.000177075
-0.000159941
-0.000142851
-0.000125341
-0.000107333
-8.88708e-05
-7.02455e-05
-5.10863e-05
-3.15882e-05
-1.16759e-05
8.43605e-06
2.90368e-05
4.98581e-05
7.10696e-05
9.24458e-05
0.000114267
0.000136241
0.000158582
0.000181065
0.000203999
0.000227037
0.000250441
0.000274045
0.000298141
0.000322281
0.0003469
0.0003719
0.00039738
0.000422898
0.000449305
0.000476316
0.000503634
0.000531374
0.000560875
0.000590857
0.000621004
0.000653116
0.000687965
0.000722202
0.000757766
0.000798761
0.000841777
0.000882424
0.000929929
0.000986934
0.00104505
0.00111131
0.00117407
0.00124267
0.00132973
0.00141906
0.00150194
0.00159598
0.00169572
0.00183332
0.00198952
0.00143095
0.000344358
-0.000360718
-0.000413769
-0.000367519
-0.00034525
-0.000372395
-0.000391667
-0.000383057
-0.000350412
-0.000323967
-0.000342017
-0.000306153
-0.000266413
-0.000233922
-0.000184367
-0.000426567
-0.000819203
-0.00102297
-0.000995946
-0.000955375
-0.000882848
-0.000820791
-0.00077744
-0.000720463
-0.000657339
-0.000610703
-0.000570575
-0.000524916
-0.000484117
-0.000453315
-0.000423816
-0.000394058
-0.000369355
-0.000348602
-0.000327718
-0.000307841
-0.000290457
-0.000273899
-0.000256913
-0.00024056
-0.000224788
-0.00020874
-0.000192223
-0.000175812
-0.000159123
-0.000141965
-0.000124347
-0.000106556
-8.82569e-05
-6.95727e-05
-5.04492e-05
-3.10868e-05
-1.12263e-05
8.90557e-06
2.94497e-05
5.02007e-05
7.13962e-05
9.27842e-05
0.000114557
0.00013649
0.000158848
0.000181351
0.000204223
0.000227254
0.000250739
0.000274333
0.000298331
0.000322585
0.00034734
0.000372185
0.000397629
0.000423535
0.000449938
0.000476556
0.000504301
0.000532695
0.000561518
0.000591252
0.000623017
0.000655222
0.000688196
0.000724053
0.000762564
0.000800699
0.000841998
0.000889468
0.000938125
0.000986601
0.00104505
0.00111131
0.00117407
0.00124267
0.00132973
0.00141906
0.00150194
0.00159598
0.00169572
0.00183332
0.00198952
0.00143095
0.000344358
-0.000360718
-0.000413769
-0.000367519
-0.00034525
-0.000372395
-0.000391667
-0.000383057
-0.000350412
-0.000323967
-0.000342017
-0.000306153
-0.000266413
-0.000233922
-0.000184367
-0.000426567
-0.000819203
-0.00102297
-0.000995946
-0.000955375
-0.000882848
-0.000820791
-0.00077744
-0.000720463
-0.000657339
-0.000610703
-0.000570575
-0.000524916
-0.000484117
-0.000453315
-0.000423816
-0.000394058
-0.000369355
-0.000348602
-0.000327718
-0.000307841
-0.000290457
-0.000273899
-0.000256913
-0.00024056
-0.000224788
-0.00020874
-0.000192223
-0.000175812
-0.000159123
-0.000141965
-0.000124347
-0.000106556
-8.82569e-05
-6.95727e-05
-5.04492e-05
-3.10868e-05
-1.12263e-05
8.90557e-06
2.94497e-05
5.02007e-05
7.13962e-05
9.27842e-05
0.000114557
0.00013649
0.000158848
0.000181351
0.000204223
0.000227254
0.000250739
0.000274333
0.000298331
0.000322585
0.00034734
0.000372185
0.000397629
0.000423535
0.000449938
0.000476556
0.000504301
0.000532695
0.000561518
0.000591252
0.000623017
0.000655222
0.000688196
0.000724053
0.000762564
0.000800699
0.000841998
0.000889468
0.000938125
0.000986601
0.00104029
0.00109265
0.0011646
0.00124443
0.00130828
0.00138068
0.00148659
0.00158826
0.00165258
0.00171739
0.00185112
0.00156404
0.000301197
-0.000395582
-0.000276952
-0.000356614
-0.00041488
-0.000404849
-0.00035947
-0.000345148
-0.000393314
-0.000377416
-0.000294573
-0.00029416
-0.00030751
-0.000244797
-0.00020374
-0.000481016
-0.000952862
-0.0010768
-0.000989425
-0.000926618
-0.000901745
-0.000844401
-0.000762848
-0.00071024
-0.000672351
-0.000616614
-0.000561654
-0.000525824
-0.000492527
-0.000453541
-0.000421355
-0.000397742
-0.000373286
-0.000348531
-0.000328532
-0.000310995
-0.000292359
-0.000274522
-0.000258561
-0.000242635
-0.000225926
-0.000209689
-0.000193656
-0.000177075
-0.000159941
-0.000142851
-0.000125341
-0.000107333
-8.88708e-05
-7.02455e-05
-5.10863e-05
-3.15882e-05
-1.16759e-05
8.43605e-06
2.90368e-05
4.98581e-05
7.10696e-05
9.24458e-05
0.000114267
0.000136241
0.000158582
0.000181065
0.000203999
0.000227037
0.000250441
0.000274045
0.000298141
0.000322281
0.0003469
0.0003719