# vtk DataFile Version 3.0
fluid_state
ASCII
DATASET RECTILINEAR_GRID
DIMENSIONS 100 40 1
X_COORDINATES 100 float
0.5 1.5 2.5 3.5 4.5 5.5 6.5 7.5 8.5 9.5 10.5 11.5 12.5 13.5 14.5 15.5 16.5 17.5 18.5 19.5 20.5 21.5 22.5 23.5 24.5 25.5 26.5 27.5 28.5 29.5 30.5 31.5 32.5 33.5 34.5 35.5 36.5 37.5 38.5 39.5 40.5 41.5 42.5 43.5 44.5 45.5 46.5 47.5 48.5 49.5 50.5 51.5 52.5 53.5 54.5 55.5 56.5 57.5 58.5 59.5 60.5 61.5 62.5 63.5 64.5 65.5 66.5 67.5 68.5 69.5 70.5 71.5 72.5 73.5 74.5 75.5 76.5 77.5 78.5 79.5 80.5 81.5 82.5 83.5 84.5 85.5 86.5 87.5 88.5 89.5 90.5 91.5 92.5 93.5 94.5 95.5 96.5 97.5 98.5 99.5 
Y_COORDINATES 40 float
0.5 1.5 2.5 3.5 4.5 5.5 6.5 7.5 8.5 9.5 10.5 11.5 12.5 13.5 14.5 15.5 16.5 17.5 18.5 19.5 20.5 21.5 22.5 23.5 24.5 25.5 26.5 27.5 28.5 29.5 30.5 31.5 32.5 33.5 34.5 35.5 36.5 37.5 38.5 39.5 
Z_COORDINATES 1 float
0
POINT_DATA 4000
SCALARS density_difference float 1
LOOKUP_TABLE default
-0.000303924
-0.000295516
-0.000285094
-0.000272139
-0.00025858
-0.000245704
-0.000232109
-0.000216728
-0.000203145
-0.000194021
-0.000183358
-0.000173201
-0.00017226
-0.000171769
-0.000169567
-0.000177397
-0.000186463
-0.000192179
-0.000204643
-0.000216816
-0.000223495
-0.000233705
-0.000240013
-0.000239979
-0.000241434
-0.000236845
-0.00022545
-0.000216584
-0.00020205
-0.000179847
-0.000160931
-0.000140261
-0.000112595
-8.58258e-05
-6.09315e-05
-3.31065e-05
-3.99267e-06
2.29686e-05
4.8857e-05
7.51128e-05
0.000100219
0.000122791
0.000143837
0.000163633
0.000181111
0.000196028
0.000209007
0.000219834
0.000228101
0.000233897
0.000237479
0.000238701
0.0002375
0.000233983
0.000228347
0.00022058
0.000210759
0.000199044
0.000185666
0.000170687
0.000154288
0.000136675
0.000118083
9.86163e-05
7.85132e-05
5.79503e-05
3.71427e-05
1.6196e-05
-4.67665e-06
-2.53765e-05
-4.57159e-05
-6.56474e-05
-8.50413e-05
-0.000103867
-0.000121963
-0.000139404
-0.000156129
-0.000172111
-0.000187238
-0.000201745
-0.000215526
-0.000228482
-0.000240653
-0.000252385
-0.000263289
-0.000273264
-0.000282672
-0.000291674
-0.000299405
-0.00030615
-0.000312581
-0.000318075
-0.00032159
-0.000324375
-0.000326731
-0.000326932
-0.000324869
-0.000322578
-0.00031895
-0.000312217
-0.000305367
-0.000298046
-0.000287792
-0.000275779
-0.000264535
-0.000253877
-0.000239594
-0.000224524
-0.000215812
-0.000207695
-0.000192917
-0.000186572
-0.000189509
-0.00018412
-0.000181061
-0.000191198
-0.0001984
-0.000201379
-0.000211253
-0.000222449
-0.000227241
-0.000234495
-0.00023972
-0.000235853
-0.000235728
-0.000235261
-0.000219521
-0.000205144
-0.000198178
-0.000178057
-0.000151325
-0.000133413
-0.000112293
-8.28911e-05
-5.55459e-05
-3.16714e-05
-4.64061e-06
2.41752e-05
5.02665e-05
7.4338e-05
9.93003e-05
0.000123045
0.00014391
0.000162971
0.000181115
0.000196699
0.000209699
0.000220609
0.000229599
0.00023581
0.00023967
0.000241211
0.000240625
0.000237454
0.000232215
0.000224793
0.000215529
0.000204129
0.000191185
0.000176541
0.000160655
0.000143311
0.000125152
0.000105972
8.6302e-05
6.59398e-05
4.55163e-05
2.47499e-05
4.19557e-06
-1.63935e-05
-3.64564e-05
-5.63603e-05
-7.5562e-05
-9.43799e-05
-0.000112364
-0.000129941
-0.000146573
-0.000162666
-0.000177895
-0.000192655
-0.00020639
-0.000219634
-0.000232139
-0.000244108
-0.000255003
-0.000265576
-0.000275456
-0.000284498
-0.000292427
-0.000300203
-0.000306946
-0.000312274
-0.000316587
-0.000320688
-0.000322878
-0.000323156
-0.000322719
-0.000321557
-0.00031756
-0.000311692
-0.000305207
-0.000296671
-0.000288105
-0.00027994
-0.000268803
-0.000255844
-0.00024461
-0.000235486
-0.000223574
-0.00021094
-0.000205828
-0.000203286
-0.000193575
-0.000192892
-0.000201583
-0.000200445
-0.000203153
-0.000216647
-0.000221851
-0.000226588
-0.000236785
-0.000238223
-0.000239949
-0.000243663
-0.000235173
-0.000227196
-0.000223289
-0.000207134
-0.000187752
-0.000174651
-0.000154479
-0.000128755
-0.000105876
-8.30367e-05
-5.59447e-05
-2.82703e-05
-2.33618e-06
2.34089e-05
5.05802e-05
7.63402e-05
0.000100167
0.000123123
0.00014536
0.000165054
0.000182814
0.000198758
0.000212817
0.000224098
0.000233313
0.000240144
0.000244806
0.000246723
0.000246602
0.000244039
0.000239466
0.000232426
0.000223701
0.000212846
0.000200476
0.000186196
0.000170851
0.000153956
0.000136282
0.000117417
9.82283e-05
7.81874e-05
5.81413e-05
3.75952e-05
1.74064e-05
-3.0149e-06
-2.28406e-05
-4.26557e-05
-6.16387e-05
-8.04677e-05
-9.83835e-05
-0.000116004
-0.000132586
-0.0001489
-0.000164222
-0.000179125
-0.000193021
-0.000206719
-0.000219399
-0.000231583
-0.000242963
-0.000254172
-0.000264143
-0.000273578
-0.000282468
-0.000290815
-0.000297441
-0.000303708
-0.000309438
-0.000313582
-0.000315692
-0.000317939
-0.000318887
-0.000316976
-0.000313646
-0.000310776
-0.000300759
-0.000294548
-0.000287335
-0.00027905
-0.000268803
-0.000257441
-0.000247581
-0.00023924
-0.000226685
-0.000215951
-0.000214275
-0.000209141
-0.000199559
-0.000204515
-0.000210701
-0.0002093
-0.000215334
-0.000227208
-0.000233602
-0.000238096
-0.000246484
-0.000248744
-0.000247385
-0.000250807
-0.000243273
-0.000228134
-0.00022369
-0.000213472
-0.000187337
-0.000169603
-0.000155352
-0.000129709
-0.000102109
-7.98918e-05
-5.54233e-05
-2.70808e-05
5.85384e-07
2.56482e-05
5.17726e-05
7.83629e-05
0.000103045
0.000125584
0.000147899
0.000168467
0.000186736
0.00020281
0.000217446
0.00022947
0.000239228
0.000246505
0.000251839
0.000254437
0.000254909
0.000252872
0.000248969
0.000242558
0.000234405
0.000224073
0.000212335
0.000198596
0.00018377
0.000167354
0.000150223
0.000131784
0.000113038
9.33728e-05
7.37377e-05
5.34855e-05
3.36253e-05
1.34204e-05
-6.14735e-06
-2.58151e-05
-4.46344e-05
-6.3439e-05
-8.12432e-05
-9.88864e-05
-0.00011552
-0.000131988
-0.000147322
-0.000162468
-0.000176658
-0.000190607
-0.000203427
-0.00021617
-0.000228025
-0.000239454
-0.000249819
-0.00026021
-0.000269516
-0.000278021
-0.000285604
-0.000293073
-0.000298804
-0.000303391
-0.000307268
-0.000310368
-0.000310909
-0.000310418
-0.000309199
-0.000306272
-0.0002943
-0.000290905
-0.00028342
-0.000273857
-0.000265975
-0.000258711
-0.000247377
-0.000235221
-0.000228625
-0.000225
-0.000214036
-0.000206377
-0.000215122
-0.000216294
-0.000207508
-0.000223184
-0.000237042
-0.000234506
-0.000245795
-0.000258712
-0.000258344
-0.000266719
-0.000265378
-0.000253694
-0.000255489
-0.000248911
-0.00022304
-0.00021056
-0.000200118
-0.000174215
-0.000148337
-0.000129124
-0.000106063
-7.75469e-05
-5.00859e-05
-2.59329e-05
9.95376e-07
2.96465e-05
5.58954e-05
8.03948e-05
0.000106086
0.000130338
0.000152237
0.00017254
0.000192033
0.000208918
0.000223619
0.000236163
0.000246938
0.000254839
0.000260612
0.000263929
0.000265267
0.000263829
0.000260512
0.000254828
0.000247422
0.000237653
0.000226527
0.000213444
0.000199242
0.000183324
0.000166755
0.000148845
0.000130586
0.000111317
9.21324e-05
7.224e-05
5.27108e-05
3.27613e-05
1.34875e-05
-6.02076e-06
-2.46848e-05
-4.33975e-05
-6.10953e-05
-7.88066e-05
-9.54611e-05
-0.000112
-0.000127452
-0.000142908
-0.000157255
-0.000171436
-0.000184663
-0.000197924
-0.000209977
-0.000221859
-0.000233002
-0.000243958
-0.000253419
-0.000262805
-0.000271518
-0.00027927
-0.00028523
-0.000291442
-0.000296451
-0.000299241
-0.00030057
-0.000302505
-0.000301777
-0.000298073
-0.000287101
-0.000281927
-0.000275925
-0.000269831
-0.000261246
-0.000252861
-0.000244159
-0.000234209
-0.000227401
-0.000223391
-0.00021449
-0.000212498
-0.00021957
-0.000217806
-0.000221716
-0.000237052
-0.00024483
-0.000253998
-0.000266096
-0.000278653
-0.00028072
-0.000285759
-0.000288447
-0.000276667
-0.000266916
-0.000263892
-0.000241001
-0.000216301
-0.000204286
-0.000181785
-0.000152118
-0.000128605
-0.000104701
-7.75469e-05
-4.90866e-05
-2.20798e-05
4.62683e-06
3.20897e-05
5.97361e-05
8.54289e-05
0.000110612
0.000134952
0.000157981
0.000178827
0.000198425
0.000215933
0.000231577
0.000244682
0.00025596
0.000264677
0.000271336
0.000275273
0.000277298
0.000276715
0.000274198
0.000269145
0.000262481
0.000253489
0.000243051
0.000230573
0.00021706
0.000201779
0.000185782
0.000168395
0.000150694
0.000131898
0.00011315
9.36367e-05
7.44923e-05
5.48385e-05
3.58295e-05
1.65077e-05
-1.95582e-06
-2.0568e-05
-3.82172e-05
-5.59452e-05
-7.25748e-05
-8.92475e-05
-0.000104894
-0.000120528
-0.000135029
-0.000149647
-0.000163272
-0.000176782
-0.000189254
-0.000201932
-0.000213498
-0.000224735
-0.000235107
-0.000245535
-0.00025437
-0.000262677
-0.00027029
-0.000277241
-0.000281912
-0.000286226
-0.000289676
-0.000291142
-0.000290277
-0.00028964
-0.000276328
-0.000271332
-0.000267469
-0.000263057
-0.000254
-0.000244384
-0.00023839
-0.000233775
-0.000223369
-0.000213809
-0.000218013
-0.000223997
-0.000211526
-0.000217916
-0.000249516
-0.000245583
-0.000246734
-0.00028278
-0.000293618
-0.000296958
-0.000313954
-0.000308444
-0.000309635
-0.000319198
-0.000289599
-0.000264209
-0.000267414
-0.000243093
-0.000204128
-0.000182806
-0.000163787
-0.000133929
-0.000100714
-7.53934e-05
-5.04313e-05
-1.9468e-05
1.04944e-05
3.58134e-05
6.30362e-05
9.12435e-05
0.000116916
0.000140436
0.000164315
0.000186421
0.000206233
0.000224009
0.000240655
0.000254648
0.00026645
0.000275857
0.000283497
0.000288276
0.000290995
0.000291217
0.000289622
0.000285353
0.000279408
0.000271206
0.000261573
0.000249777
0.000236931
0.000222338
0.000206986
0.000190155
0.00017301
0.000154739
0.000136454
0.000117343
9.85918e-05
7.92593e-05
6.05154e-05
4.14196e-05
2.31461e-05
4.62232e-06
-1.29618e-05
-3.06555e-05
-4.73345e-05
-6.41627e-05
-7.99224e-05
-9.57295e-05
-0.00011056
-0.000125549
-0.000139419
-0.000153357
-0.000166467
-0.00017963
-0.000191538
-0.000203569
-0.000214837
-0.000225666
-0.000235023
-0.000244631
-0.00025313
-0.000260219
-0.000265895
-0.000271966
-0.000275785
-0.000277249
-0.000278183
-0.000279247
-0.000263011
-0.000262398
-0.000257162
-0.00024983
-0.00024526
-0.000239285
-0.00022919
-0.000223451
-0.000219383
-0.000213031
-0.000213121
-0.000217626
-0.000218821
-0.000233005
-0.000243107
-0.000253317
-0.000281534
-0.000294599
-0.000311497
-0.000326609
-0.000349154
-0.000352216
-0.000338387
-0.000335307
-0.000330685
-0.000299156
-0.000277234
-0.000256383
-0.00022363
-0.000196098
-0.000165658
-0.000135137
-0.000106992
-7.58558e-05
-4.48233e-05
-1.71571e-05
1.19709e-05
4.15932e-05
6.95485e-05
9.60494e-05
0.000122816
0.00014819
0.000171946
0.000193947
0.000215014
0.00023379
0.000250648
0.000265289
0.000278286
0.000288497
0.000296697
0.000302418
0.0003062
0.000307171
0.000306323
0.000303015
0.000297957
0.000290462
0.000281602
0.000270637
0.000258505
0.000244548
0.000229871
0.000213685
0.000197086
0.000179325
0.000161543
0.000142878
0.000124489
0.000105487
8.70435e-05
6.81811e-05
5.00564e-05
3.16561e-05
1.4165e-05
-3.53311e-06
-2.03019e-05
-3.72012e-05
-5.30799e-05
-6.91757e-05
-8.43158e-05
-9.9519e-05
-0.000113771
-0.000128325
-0.000141847
-0.000155328
-0.000168032
-0.000180941
-0.000192472
-0.000203862
-0.000214634
-0.000224985
-0.000233379
-0.000241801
-0.000249415
-0.000255223
-0.00025892
-0.000263276
-0.000265569
-0.000264563
-0.000250214
-0.000249175
-0.000244115
-0.000238663
-0.000234283
-0.000228909
-0.0002202
-0.000211878
-0.000210706
-0.000213556
-0.000205248
-0.000201687
-0.000231765
-0.000248301
-0.000224604
-0.000267154
-0.000311749
-0.000295784
-0.000332203
-0.000367762
-0.000368666
-0.000396587
-0.000392547
-0.000345701
-0.000359035
-0.000356388
-0.000292586
-0.000261536
-0.000247217
-0.000214253
-0.000170663
-0.000136788
-0.000111237
-7.8317e-05
-4.18458e-05
-1.3282e-05
1.46492e-05
4.6151e-05
7.59039e-05
0.000102244
0.000129294
0.000155813
0.000180246
0.000202598
0.000224333
0.000244002
0.000261632
0.00027694
0.000290754
0.000301943
0.00031102
0.000317526
0.000322229
0.00032418
0.000324179
0.000321688
0.000317534
0.000310905
0.000302802
0.000292605
0.00028125
0.000267997
0.000253958
0.000238412
0.000222404
0.000205174
0.000187871
0.000169659
0.000151652
0.000132995
0.000114832
9.62e-05
7.82428e-05
5.9987e-05
4.25415e-05
2.48359e-05
8.03454e-06
-8.94363e-06
-2.50432e-05
-4.13625e-05
-5.6713e-05
-7.2263e-05
-8.70067e-05
-0.000101928
-0.00011584
-0.000130005
-0.000143395
-0.000156703
-0.000168893
-0.000181341
-0.000192765
-0.000203495
-0.000213028
-0.0002227
-0.000230563
-0.000236968
-0.000242425
-0.000247562
-0.000249592
-0.000249987
-0.000235892
-0.000231908
-0.00023078
-0.000229341
-0.000219514
-0.000211893
-0.000211744
-0.000205439
-0.000195103
-0.00019796
-0.000204058
-0.000203727
-0.000214665
-0.000233625
-0.000261744
-0.000278326
-0.000261728
-0.000316007
-0.000366202
-0.000397287
-0.000389544
-0.000407884
-0.000440913
-0.00042817
-0.000373597
-0.000352804
-0.000328932
-0.000304224
-0.000261508
-0.000213427
-0.000186353
-0.000152278
-0.000107635
-7.52482e-05
-4.67843e-05
-1.17452e-05
2.20125e-05
5.03098e-05
7.94086e-05
0.0001095
0.000137384
0.000162729
0.000188247
0.000212409
0.000234317
0.000254134
0.000273083
0.000289523
0.00030374
0.0003157
0.000326021
0.000333428
0.000338786
0.000341716
0.000342774
0.000341077
0.000337689
0.000331995
0.000324741
0.000315253
0.000304629
0.000292148
0.000278761
0.00026381
0.000248393
0.000231732
0.000214888
0.000197112
0.000179502
0.000161198
0.000143286
0.000124896
0.000107122
8.89878e-05
7.15663e-05
5.39018e-05
3.70606e-05
1.99464e-05
3.64965e-06
-1.28078e-05
-2.84488e-05
-4.44213e-05
-5.9517e-05
-7.47298e-05
-8.92669e-05
-0.000104111
-0.000117847
-0.00013166
-0.000144947
-0.000158097
-0.00016966
-0.000181418
-0.000192526
-0.000202308
-0.000210187
-0.000218752
-0.000225611
-0.000229405
-0.0002323
-0.000236382
-0.000219199
-0.000218611
-0.000216385
-0.00021202
-0.000206406
-0.000200814
-0.000194241
-0.000190812
-0.000186782
-0.000180164
-0.000189905
-0.000208021
-0.000194682
-0.000200987
-0.000289439
-0.000284948
-0.000236697
-0.000314687
-0.00032349
-0.000376087
-0.000463895
-0.000468742
-0.000435396
-0.000470007
-0.000406325
-0.00036141
-0.00037367
-0.000332551
-0.000275959
-0.000230003
-0.000195252
-0.000158283
-0.000114318
-7.72469e-05
-4.5313e-05
-1.0133e-05
2.43182e-05
5.47175e-05
8.51754e-05
0.000115421
0.00014398
0.000170708
0.000196842
0.000221331
0.000244304
0.000265168
0.000284588
0.000301816
0.000317206
0.000329999
0.000340988
0.000349427
0.000355819
0.00035952
0.000361404
0.000360704
0.00035817
0.000353226
0.000346789
0.000338133
0.000328203
0.000316402
0.000303692
0.00028938
0.000274502
0.000258377
0.000242013
0.000224682
0.000207429
0.000189466
0.000171822
0.000153678
0.000136045
0.000118034
0.000100676
8.30407e-05
6.60966e-05
4.88984e-05
3.2473e-05
1.57879e-05
-2.0078e-07
-1.64094e-05
-3.18409e-05
-4.7594e-05
-6.26453e-05
-7.78025e-05
-9.21779e-05
-0.000106849
-0.000120603
-0.00013415
-0.000146849
-0.000159554
-0.000170771
-0.000181336
-0.000190925
-0.000199812
-0.000206392
-0.000212065
-0.000216523
-0.000219203
-0.000202854
-0.000205225
-0.000199944
-0.000193195
-0.000193272
-0.000188772
-0.000173261
-0.00017004
-0.000177614
-0.000170151
-0.000162116
-0.000181501
-0.000199394
-0.000196491
-0.000210766
-0.000275156
-0.00034926
-0.000233487
-0.000239715
-0.000359433
-0.000336408
-0.000435139
-0.000451243
-0.000367554
-0.000435175
-0.000457776
-0.000414813
-0.000321726
-0.000291237
-0.000269126
-0.000202163
-0.000152053
-0.000126396
-8.63025e-05
-4.05115e-05
-7.5534e-06
2.3054e-05
5.8472e-05
9.18712e-05
0.000120362
0.00014942
0.000178789
0.000205558
0.000229756
0.000253895
0.000276276
0.000296157
0.000313856
0.000330447
0.000344332
0.000355918
0.000365166
0.000372652
0.000377243
0.000379829
0.000380019
0.000378403
0.000374221
0.000368493
0.000360643
0.000351439
0.00034028
0.00032819
0.000314518
0.000300172
0.000284549
0.000268645
0.000251756
0.000234838
0.000217205
0.000199825
0.00018191
0.000164406
0.000146536
0.000129228
0.000111594
9.45724e-05
7.7327e-05
6.07232e-05
4.37995e-05
2.7557e-05
1.11218e-05
-4.75422e-06
-2.0969e-05
-3.63689e-05
-5.19548e-05
-6.71004e-05
-8.23384e-05
-9.64134e-05
-0.000110724
-0.00012453
-0.000137578
-0.000149045
-0.000161018
-0.000171764
-0.000180186
-0.000187297
-0.000195346
-0.000199969
-0.000200879
-0.000187583
-0.000186017
-0.000184359
-0.000181611
-0.0001735
-0.000166312
-0.00016367
-0.000155018
-0.000143599
-0.000152673
-0.000157712
-0.000143681
-0.000169139
-0.00020412
-0.000123831
-0.000202541
-0.000413155
-0.000112449
-9.3085e-05
-0.0003143
-6.70604e-05
-0.00025002
-0.000296323
-0.000157298
-0.000438215
-0.000518381
-0.000401575
-0.000362375
-0.000313741
-0.000262808
-0.000218063
-0.000172677
-0.000127657
-8.44869e-05
-4.57798e-05
-9.80356e-06
2.71356e-05
6.18598e-05
9.39368e-05
0.000125528
0.000156451
0.000184974
0.00021262
0.000238968
0.00026348
0.000285936
0.000307274
0.000326205
0.000343076
0.000357734
0.000370602
0.000380641
0.000388675
0.000394244
0.000397801
0.000398664
0.000397752
0.000394459
0.000389466
0.000382249
0.000373721
0.000363267
0.000351739
0.000338616
0.000324803
0.00030969
0.000294186
0.0002777
0.000261126
0.000243815
0.000226652
0.000208955
0.000191603
0.000173858
0.000156558
0.000138955
0.000121901
0.000104556
8.77417e-05
7.07e-05
5.42305e-05
3.74223e-05
2.11779e-05
4.75626e-06
-1.11489e-05
-2.73922e-05
-4.28831e-05
-5.84242e-05
-7.34634e-05
-8.85295e-05
-0.000102365
-0.000116082
-0.000129105
-0.000141283
-0.000151626
-0.000161798
-0.000170546
-0.000177074
-0.00018174
-0.000186234
-0.0001717
-0.000168799
-0.000168627
-0.000166949
-0.00015541
-0.000146005
-0.000146553
-0.000136471
-0.000116796
-0.000123047
-0.000139579
-0.000129448
-0.000113815
-0.000137106
-0.000119998
-0.000128355
-0.000188647
-8.73111e-05
-2.48278e-05
-7.6111e-05
-8.99354e-05
-0.000140277
-6.61797e-05
-6.82354e-05
-0.00027898
-0.00036558
-0.000377823
-0.000420655
-0.000340719
-0.000255013
-0.000232572
-0.00019189
-0.000128455
-8.59309e-05
-5.27218e-05
-1.05451e-05
3.03474e-05
6.29345e-05
9.56156e-05
0.000130343
0.000162226
0.000190549
0.000219204
0.000247106
0.000272389
0.000295283
0.000317511
0.000337566
0.000355182
0.000370463
0.000384205
0.000395183
0.000403913
0.00041019
0.000414575
0.000416227
0.000415965
0.00041338
0.0004091
0.000402537
0.000394588
0.000384754
0.000373784
0.000361182
0.000347831
0.000333192
0.000318074
0.00030196
0.000285694
0.00026868
0.000251723
0.000234237
0.000217011
0.000199373
0.0001821
0.000164536
0.000147412
0.00012998
0.000113028
9.58462e-05
7.90959e-05
6.20272e-05
4.55069e-05
2.87494e-05
1.2353e-05
-4.26532e-06
-2.0137e-05
-3.62452e-05
-5.19446e-05
-6.73724e-05
-8.16787e-05
-9.62494e-05
-0.000109946
-0.000122254
-0.000133209
-0.000144548
-0.000153603
-0.000159723
-0.000165291
-0.000171149
-0.000155839
-0.000157752
-0.000152583
-0.000145312
-0.000142374
-0.000134175
-0.000116203
-0.000109732
-0.0001136
-8.99457e-05
-7.03214e-05
-0.000115428
-0.000130231
-8.26029e-05
-6.39779e-05
-5.93312e-05
-7.45886e-05
-0.000112178
-0.000115303
-4.47118e-05
-9.25098e-05
-3.7498e-05
-8.28435e-06
-4.33986e-05
-9.42114e-05
-0.000164987
-0.000321235
-0.000359673
-0.000338711
-0.000314029
-0.000245623
-0.000180533
-0.000138923
-9.91479e-05
-5.11519e-05
-8.80737e-06
2.62296e-05
6.32708e-05
0.000100751
0.000133117
0.000164536
0.000196679
0.000226364
0.000253082
0.000279704
0.000304711
0.000327008
0.000347172
0.000366232
0.000382538
0.000396471
0.000408162
0.000417966
0.000424862
0.0004297
0.000432159
0.000432648
0.000430588
0.000426864
0.00042099
0.000413587
0.000404236
0.000393768
0.000381686
0.000368733
0.000354489
0.000339739
0.000323979
0.000307965
0.000291212
0.000274464
0.000257166
0.000240029
0.000222499
0.000205278
0.000187722
0.000170508
0.000153051
0.00013599
0.000118602
0.000101615
8.44341e-05
6.75913e-05
5.03885e-05
3.37325e-05
1.693e-05
3.81775e-07
-1.63069e-05
-3.2047e-05
-4.79035e-05
-6.34071e-05
-7.82299e-05
-9.15432e-05
-0.000105103
-0.000117586
-0.000127804
-0.000136455
-0.000145589
-0.000151518
-0.000153622
-0.000142489
-0.000143535
-0.000138448
-0.000130316
-0.000125131
-0.000117385
-9.86855e-05
-8.42641e-05
-8.24364e-05
-6.58248e-05
-4.10134e-05
-3.66539e-05
-5.73076e-05
-0.000107414
-0.000105398
-6.06899e-05
-7.50552e-05
-9.88544e-05
-8.53851e-05
-5.36129e-05
-7.03323e-05
-3.25303e-05
-1.54049e-05
-2.64311e-06
1.31792e-05
3.86185e-06
-0.000153834
-0.000337991
-0.000383103
-0.000323329
-0.000238844
-0.00019132
-0.000154754
-0.000100647
-5.0311e-05
-1.34957e-05
2.42215e-05
6.51412e-05
0.000102246
0.000135052
0.000168136
0.000200922
0.000231327
0.000259253
0.00028643
0.000311953
0.000335298
0.000356249
0.000375694
0.000392728
0.000407509
0.000419743
0.00043005
0.000437675
0.000443144
0.000446104
0.000447145
0.000445705
0.000442479
0.000437088
0.000430179
0.000421317
0.000411251
0.000399584
0.000387009
0.000373126
0.00035867
0.000343209
0.000327434
0.000310914
0.000294328
0.000277189
0.000260152
0.000242719
0.000225509
0.000207969
0.000190724
0.000173214
0.000156004
0.000138511
0.000121365
0.000103955
8.68276e-05
6.94433e-05
5.24752e-05
3.52562e-05
1.83777e-05
1.46241e-06
-1.48076e-05
-3.11965e-05
-4.6913e-05
-6.20553e-05
-7.61604e-05
-9.01033e-05
-0.000102534
-0.000113323
-0.000122807
-0.000131716
-0.000137448
-0.000140296
-0.000131574
-0.000127266
-0.000126424
-0.000123296
-0.000107717
-9.32875e-05
-8.84172e-05
-7.18177e-05
-3.92408e-05
-3.0955e-05
-3.25929e-05
3.49649e-05
6.50989e-05
-5.05235e-05
-0.00011637
-8.78573e-05
-7.07994e-05
-5.85912e-05
-6.70503e-05
-7.86601e-05
-2.7786e-05
-2.22418e-05
-3.87356e-05
-8.17431e-07
6.19672e-05
8.63277e-05
-3.81916e-05
-0.000328753
-0.000387306
-0.000293504
-0.000255354
-0.000213898
-0.000150797
-9.89436e-05
-6.12618e-05
-1.78262e-05
2.877e-05
6.53208e-05
9.92485e-05
0.000137468
0.0001731
0.000203267
0.000234076
0.000265068
0.000292577
0.00031732
0.000341887
0.000364235
0.000383659
0.00040092
0.000416727
0.000429593
0.00044007
0.000448251
0.000454416
0.000457777
0.000459162
0.000458274
0.000455522
0.000450485
0.000443956
0.000435537
0.00042581
0.000414457
0.000402197
0.000388634
0.00037441
0.000359187
0.000343622
0.000327298
0.000310834
0.00029383
0.000276888
0.000259526
0.000242314
0.000224808
0.000207543
0.000189959
0.00017263
0.000155096
0.000137794
0.000120142
0.000102841
8.53671e-05
6.80261e-05
5.04276e-05
3.34736e-05
1.63536e-05
-6.42522e-07
-1.73115e-05
-3.28101e-05
-4.8603e-05
-6.38007e-05
-7.72573e-05
-8.92377e-05
-0.00010186
-0.000112121
-0.000118609
-0.00012471
-0.000131384
-0.000121687
-0.000120368
-0.000115867
-0.000109097
-9.8298e-05
-8.3345e-05
-6.8158e-05
-5.18956e-05
-2.6357e-05
-4.90498e-06
2.02109e-05
7.01017e-05
4.29499e-06
-7.00702e-05
-6.11455e-05
-7.81922e-05
-8.22417e-05
-6.34859e-05
-5.64712e-05
-5.71704e-05
-3.36583e-05
-2.55519e-05
6.61429e-07
2.04286e-05
4.09262e-05
6.94271e-05
8.7979e-05
-0.000128081
-0.000347332
-0.000314896
-0.000279278
-0.000211099
-0.000150221
-0.000109763
-6.40734e-05
-1.57516e-05
2.54213e-05
6.34965e-05
0.000102072
0.000138624
0.000173134
0.000206399
0.000238174
0.000267901
0.000296342
0.000322766
0.000347195
0.000369457
0.000389944
0.000407844
0.000423611
0.000436917
0.00044809
0.000456563
0.000462937
0.000466796
0.000468604
0.000467969
0.000465528
0.000460893
0.000454652
0.00044649
0.000437049
0.000425988
0.000413941
0.000400597
0.00038658
0.000371553
0.000356126
0.000339948
0.0003236
0.000306704
0.000289807
0.000272505
0.000255326
0.000237827
0.000220504
0.000202911
0.000185535
0.000167878
0.000150432
0.000132744
0.000115275
9.75221e-05
8.00482e-05
6.2406e-05
4.50473e-05
2.75639e-05
1.06359e-05
-6.21584e-06
-2.24947e-05
-3.83858e-05
-5.31591e-05
-6.73859e-05
-8.03752e-05
-9.20517e-05
-0.000101867
-0.000110385
-0.00011657
-0.000120436
-0.000114821
-0.000116639
-0.000108552
-9.68835e-05
-9.14929e-05
-8.06851e-05
-5.37076e-05
-2.93254e-05
-1.64459e-05
8.00406e-06
5.80122e-05
6.43343e-05
-5.10193e-05
-9.39085e-05
-5.00271e-05
-6.53105e-05
-7.76973e-05
-7.04939e-05
-4.78716e-05
-3.21303e-05
-4.32586e-05
-3.16992e-05
1.65446e-05
3.99538e-05
3.82471e-05
6.00532e-05
0.000129482
-2.92674e-07
-0.000292963
-0.000341783
-0.000267495
-0.000212193
-0.000168372
-0.000114747
-5.7884e-05
-1.63609e-05
1.93498e-05
6.31251e-05
0.000105383
0.000138854
0.000172438
0.000208629
0.000241217
0.000269749
0.000298696
0.000326468
0.000350928
0.000372995
0.000394135
0.00041259
0.000428364
0.000441881
0.000453526
0.000462262
0.000468762
0.00047292
0.000475036
0.000474594
0.000472343
0.000467973
0.000461943
0.000453956
0.000444699
0.00043384
0.000421941
0.000408743
0.000394865
0.000379974
0.00036464
0.00034856
0.000332294
0.000315468
0.000298603
0.000281344
0.000264187
0.000246688
0.000229332
0.000211737
0.000194317
0.000176576
0.000159051
0.000141333
0.000123727
0.000105806
8.82664e-05
7.05582e-05
5.29061e-05
3.52381e-05
1.83631e-05
1.30131e-06
-1.5485e-05
-3.13216e-05
-4.58658e-05
-6.07668e-05
-7.4318e-05
-8.51364e-05
-9.48406e-05
-0.000105045
-0.000110954
-0.000112327
-0.000112222
-0.000108501
-0.000105553
-9.95385e-05
-8.42175e-05
-6.72822e-05
-5.34954e-05
-3.2781e-05
-1.74712e-06
3.75985e-05
7.50112e-05
4.12486e-05
-1.77999e-05
-6.77187e-05
-8.59855e-05
-7.20888e-05
-5.34676e-05
-5.76735e-05
-5.90237e-05
-4.73425e-05
-2.58422e-05
-3.58394e-06
-1.89993e-06
1.91987e-05
6.16336e-05
9.94298e-05
0.000121843
-3.09068e-05
-0.000259797
-0.00036156
-0.000284949
-0.000220237
-0.000162126
-0.00010918
-6.70473e-05
-2.13455e-05
2.56143e-05
6.43515e-05
0.000100455
0.000139454
0.000176203
0.000208369
0.000240441
0.000272163
0.000300937
0.000327088
0.000352497
0.000375676
0.0003962
0.000414442
0.000430976
0.000444691
0.000456063
0.000465027
0.000471894
0.00047605
0.000478171
0.000477972
0.000475871
0.000471524
0.000465598
0.000457773
0.00044859
0.000437788
0.000425991
0.00041289
0.000399059
0.000384225
0.000368959
0.000352935
0.000336688
0.000319897
0.000303071
0.000285831
0.000268654
0.000251173
0.000233836
0.000216198
0.000198721
0.000181019
0.000163468
0.000145604
0.00012797
0.000110142
9.2422e-05
7.44798e-05
5.69996e-05
3.93932e-05
2.19866e-05
4.84662e-06
-1.1358e-05
-2.75933e-05
-4.30962e-05
-5.71944e-05
-6.99037e-05
-8.25237e-05
-9.28913e-05
-0.000100218
-0.000106463
-0.000112029
-0.000112222
-0.000108501
-0.000105553
-9.95385e-05
-8.42175e-05
-6.72822e-05
-5.34954e-05
-3.2781e-05
-1.74712e-06
3.75985e-05
7.50112e-05
4.12486e-05
-1.77999e-05
-6.77187e-05
-8.59855e-05
-7.20888e-05
-5.34676e-05
-5.76735e-05
-5.90237e-05
-4.73425e-05
-2.58422e-05
-3.58394e-06
-1.89993e-06
1.91987e-05
6.16336e-05
9.94298e-05
0.000121843
-3.09068e-05
-0.000259797
-0.00036156
-0.000284949
-0.000220237
-0.000162126
-0.00010918
-6.70473e-05
-2.13455e-05
2.56143e-05
6.43515e-05
0.000100455
0.000139454
0.000176203
0.000208369
0.000240441
0.000272163
0.000300937
0.000327088
0.000352497
0.000375676
0.0003962
0.000414442
0.000430976
0.000444691
0.000456063
0.000465027
0.000471894
0.00047605
0.000478171
0.000477972
0.000475871
0.000471524
0.000465598
0.000457773
0.00044859
0.000437788
0.000425991
0.00041289
0.000399059
0.000384225
0.000368959
0.000352935
0.000336688
0.000319897
0.000303071
0.000285831
0.000268654
0.000251173
0.000233836
0.000216198
0.000198721
0.000181019
0.000163468
0.000145604
0.00012797
0.000110142
9.2422e-05
7.44798e-05
5.69996e-05
3.93932e-05
2.19866e-05
4.84662e-06
-1.1358e-05
-2.75933e-05
-4.30962e-05
-5.71944e-05
-6.99037e-05
-8.25237e-05
-9.28913e-05
-0.000100218
-0.000106463
-0.000112029
-0.000114821
-0.000116639
-0.000108552
-9.68835e-05
-9.14929e-05
-8.06851e-05
-5.37076e-05
-2.93254e-05
-1.64459e-05
8.00406e-06
5.80122e-05
6.43343e-05
-5.10193e-05
-9.39085e-05
-5.00271e-05
-6.53105e-05
-7.76973e-05
-7.04939e-05
-4.78716e-05
-3.21303e-05
-4.32586e-05
-3.16992e-05
1.65446e-05
3.99538e-05
3.82471e-05
6.00532e-05
0.000129482
-2.92674e-07
-0.000292963
-0.000341783
-0.000267495
-0.000212193
-0.000168372
-0.000114747
-5.7884e-05
-1.63609e-05
1.93498e-05
6.31251e-05
0.000105383
0.000138854
0.000172438
0.000208629
0.000241217
0.000269749
0.000298696
0.000326468
0.000350928
0.000372995
0.000394135
0.00041259
0.000428364
0.000441881
0.000453526
0.000462262
0.000468762
0.00047292
0.000475036
0.000474594
0.000472343
0.000467973
0.000461943
0.000453956
0.000444699
0.00043384
0.000421941
0.000408743