# vtk DataFile Version 3.0
fluid_state
ASCII
DATASET RECTILINEAR_GRID
DIMENSIONS 100 40 1
X_COORDINATES 100 float
0.5 1.5 2.5 3.5 4.5 5.5 6.5 7.5 8.5 9.5 10.5 11.5 12.5 13.5 14.5 15.5 16.5 17.5 18.5 19.5 20.5 21.5 22.5 23.5 24.5 25.5 26.5 27.5 28.5 29.5 30.5 31.5 32.5 33.5 34.5 35.5 36.5 37.5 38.5 39.5 40.5 41.5 42.5 43.5 44.5 45.5 46.5 47.5 48.5 49.5 50.5 51.5 52.5 53.5 54.5 55.5 56.5 57.5 58.5 59.5 60.5 61.5 62.5 63.5 64.5 65.5 66.5 67.5 68.5 69.5 70.5 71.5 72.5 73.5 74.5 75.5 76.5 77.5 78.5 79.5 80.5 81.5 82.5 83.5 84.5 85.5 86.5 87.5 88.5 89.5 90.5 91.5 92.5 93.5 94.5 95.5 96.5 97.5 98.5 99.5 
Y_COORDINATES 40 float
0.5 1.5 2.5 3.5 4.5 5.5 6.5 7.5 8.5 9.5 10.5 11.5 12.5 13.5 14.5 15.5 16.5 17.5 18.5 19.5 20.5 21.5 22.5 23.5 24.5 25.5 26.5 27.5 28.5 29.5 30.5 31.5 32.5 33.5 34.5 35.5 36.5 37.5 38.5 39.5 
Z_COORDINATES 1 float
0
POINT_DATA 4000
SCALARS density_difference float 1
LOOKUP_TABLE default
3.38629e-06
0.000931327
0.00197569
0.003143
0.00436851
0.0056563
0.00702816
0.00838769
0.00966948
0.0109206
0.0121366
0.013214
0.0141637
0.0150837
0.0159216
0.016668
0.0174643
0.0182473
0.0189879
0.0199103
0.0209264
0.0218883
0.0229184
0.0239963
0.0250073
0.0259078
0.0265976
0.0270821
0.0273265
0.0272295
0.0267856
0.0259762
0.0248656
0.0234333
0.0215913
0.0195683
0.0174228
0.0150029
0.0125504
0.0102449
0.0079542
0.00579869
0.00399185
0.00247516
0.00122722
0.000368024
-0.000112972
-0.000311602
-0.000235992
0.000103184
0.000617293
0.00123641
0.00193768
0.00267654
0.0033965
0.0040757
0.00470335
0.00525295
0.00570322
0.00604287
0.00625085
0.00630015
0.00617243
0.00585537
0.00534204
0.00463814
0.00376328
0.00274375
0.00161123
0.000398624
-0.000863595
-0.00215235
-0.0034507
-0.00475071
-0.00604923
-0.00734675
-0.00864183
-0.00992945
-0.011192
-0.0124006
-0.0135146
-0.0144845
-0.0152509
-0.0157585
-0.0159649
-0.0158415
-0.0153739
-0.0145797
-0.0135082
-0.0122205
-0.0107858
-0.00929712
-0.00784888
-0.00649722
-0.00527278
-0.0042014
-0.00327548
-0.00244234
-0.00164836
-0.000847245
-0.000249276
0.000682264
0.00173211
0.00286597
0.00407501
0.0054009
0.00675019
0.00805893
0.00938005
0.0106806
0.0118518
0.0129111
0.0139536
0.0149054
0.0156851
0.0164689
0.0173211
0.0180756
0.01886
0.0197716
0.0207184
0.0217735
0.0228347
0.0238146
0.0248485
0.0257856
0.0264742
0.0269414
0.0271788
0.027082
0.0266614
0.0258835
0.0246938
0.023285
0.0215653
0.0194498
0.0172702
0.0150096
0.0125402
0.0101593
0.00798003
0.00588544
0.00401892
0.0025308
0.00135465
0.00047671
-3.12208e-05
-0.000204499
-0.000129942
0.000164554
0.000651771
0.00125484
0.00191392
0.00260425
0.00329259
0.0039377
0.00452187
0.00503471
0.00545495
0.00576161
0.00594024
0.00597083
0.00583242
0.00551129
0.00500368
0.00431175
0.00345098
0.00244464
0.00132388
0.000118246
-0.00113984
-0.00242715
-0.00372309
-0.00501845
-0.00630418
-0.00758165
-0.00884654
-0.0100951
-0.0113094
-0.0124689
-0.0135342
-0.014459
-0.0151882
-0.0156755
-0.0158741
-0.0157509
-0.0152973
-0.0145354
-0.0134996
-0.0122425
-0.0108489
-0.00941072
-0.00799714
-0.00666285
-0.00546476
-0.0044206
-0.00350117
-0.00266638
-0.00188165
-0.00109075
-0.000938021
-5.84513e-06
0.00102741
0.00215885
0.00341896
0.00475483
0.00607735
0.0074477
0.00883525
0.0101114
0.0112929
0.012457
0.0135073
0.0143959
0.015259
0.0161083
0.0168192
0.017578
0.0185088
0.019365
0.0202706
0.0213846
0.0225145
0.0236085
0.0246661
0.0255791
0.0263991
0.026954
0.0271733
0.02711
0.0266888
0.0259599
0.0248116
0.0232678
0.0215751
0.0195597
0.0172169
0.0148965
0.0125383
0.0100691
0.00777716
0.00574216
0.00387636
0.00230194
0.00113017
0.000292715
-0.000236078
-0.000423363
-0.00031777
-1.06845e-05
0.00046084
0.00105961
0.00171744
0.00238306
0.00303866
0.00365619
0.0042066
0.00467809
0.0050623
0.00533893
0.00549073
0.00550267
0.00535665
0.00503496
0.00453143
0.0038464
0.0029915
0.00198632
0.000862013
-0.000351627
-0.00162024
-0.00291799
-0.00421917
-0.00551161
-0.00678311
-0.00803421
-0.00925942
-0.0104591
-0.0116205
-0.012728
-0.0137455
-0.0146338
-0.0153425
-0.0158217
-0.0160218
-0.0159135
-0.0154882
-0.0147535
-0.0137429
-0.0125217
-0.0111733
-0.00976892
-0.00838624
-0.00710147
-0.00596002
-0.00495353
-0.00406942
-0.00328217
-0.00253793
-0.00176921
-0.00208581
-0.00114893
-0.000102436
0.00108737
0.00239332
0.00372716
0.00513053
0.00660498
0.00797633
0.0092751
0.0105865
0.0117775
0.0127488
0.0136726
0.0145894
0.0153543
0.0160182
0.0168213
0.0176536
0.0185558
0.0196375
0.0207015
0.0218749
0.0231879
0.0243502
0.0253567
0.0262401
0.0268908
0.0271952
0.027205
0.0267867
0.0259963
0.024971
0.0234303
0.0215414
0.0195893
0.0172982
0.0147683
0.0123524
0.00993839
0.0075164
0.00535513
0.00349834
0.00188282
0.000614641
-0.000241013
-0.000747999
-0.000947638
-0.00083845
-0.000483966
2.7494e-05
0.000643393
0.00132486
0.0020103
0.00265917
0.00325545
0.00378366
0.00422319
0.00456787
0.0048104
0.00493543
0.00492517
0.00476572
0.00444049
0.00393801
0.00325503
0.00240111
0.00139209
0.000257219
-0.0009726
-0.00226018
-0.00357627
-0.00488976
-0.0061843
-0.00744431
-0.0086681
-0.00985105
-0.010998
-0.0121018
-0.0131515
-0.0141197
-0.0149731
-0.0156627
-0.016136
-0.0163484
-0.0162672
-0.0158753
-0.0151764
-0.0142149
-0.0130509
-0.0117565
-0.0104105
-0.00910911
-0.00791076
-0.00684033
-0.00590374
-0.00510077
-0.00437443
-0.00366045
-0.00290982
-0.00365095
-0.00268504
-0.00157621
-0.000315346
0.00101755
0.00244283
0.00398719
0.0054838
0.00690328
0.00837402
0.00971338
0.0108178
0.011882
0.0128749
0.0135922
0.0142407
0.0150449
0.0157814
0.0164046
0.0174118
0.0185929
0.0197589
0.0210586
0.0224124
0.0237426
0.0250512
0.02596
0.0266903
0.0271419
0.027187
0.0269031
0.0260789
0.0249512
0.0235919
0.021656
0.019477
0.0172747
0.014759
0.012114
0.00964709
0.00724957
0.00494101
0.00295733
0.0013247
-5.85916e-06
-0.000959755
-0.00149529
-0.00168709
-0.0015845
-0.00121374
-0.000645776
2.55816e-05
0.00074823
0.00147522
0.00215605
0.002758
0.00327435
0.00369335
0.00400697
0.00421245
0.00430526
0.00427071
0.00409486
0.0037622
0.0032594
0.00257738
0.00172154
0.000704657
-0.000445379
-0.00169724
-0.00300972
-0.0043493
-0.00568006
-0.00698058
-0.00823105
-0.00942799
-0.0105691
-0.0116607
-0.0127026
-0.0136914
-0.0146104
-0.0154278
-0.0161007
-0.0165791
-0.0168188
-0.0167754
-0.016433
-0.015799
-0.0149142
-0.0138268
-0.0126202
-0.0113824
-0.0101934
-0.00909239
-0.0081231
-0.00729455
-0.00657474
-0.00589289
-0.00521299
-0.00448184
-0.00553885
-0.00451138
-0.00332531
-0.00200203
-0.000564818
0.00104241
0.00265739
0.00421386
0.00585397
0.00741186
0.00868146
0.00989829
0.0110407
0.0118394
0.0124457
0.0131035
0.0137172
0.0142517
0.0150295
0.0159552
0.0169455
0.0184293
0.0199613
0.0214126
0.0229111
0.024398
0.0255876
0.0264636
0.0270285
0.0270928
0.0269089
0.0263014
0.0249988
0.0235627
0.0218595
0.0195488
0.0171277
0.014714
0.0120371
0.00934903
0.00689797
0.00458118
0.00245271
0.000697703
-0.000669771
-0.00169128
-0.00231742
-0.00254042
-0.00243286
-0.00206134
-0.00146701
-0.000732039
5.48541e-05
0.000834137
0.00156483
0.00220179
0.00272549
0.00313383
0.00342704
0.00360191
0.00366096
0.00359911
0.00340365
0.00305791
0.0025485
0.00186256
0.000999961
-2.9223e-05
-0.00119762
-0.00247306
-0.00381181
-0.00517534
-0.00652412
-0.00783116
-0.00907461
-0.0102478
-0.0113508
-0.0123909
-0.013377
-0.0143118
-0.0151885
-0.0159795
-0.0166511
-0.0171508
-0.0174313
-0.0174442
-0.0171777
-0.0166308
-0.0158404
-0.0148602
-0.0137818
-0.0126745
-0.0116093
-0.0106368
-0.00980249
-0.00907662
-0.0084222
-0.00779446
-0.00715342
-0.00641175
-0.00764082
-0.00653619
-0.0052588
-0.00380922
-0.00218492
-0.000462003
0.00122512
0.00304004
0.00484844
0.00637055
0.00781051
0.00917954
0.010063
0.0107241
0.011458
0.0119018
0.0120062
0.0124353
0.0133326
0.0140591
0.0150737
0.0165878
0.0182486
0.0201555
0.0219559
0.0234105
0.0250403
0.0261208
0.0268324
0.0271389
0.0268069
0.0263663
0.0253303
0.0236037
0.0218644
0.0198008
0.017196
0.0145874
0.0120119
0.00926901
0.00661755
0.00425399
0.0020999
0.00021006
-0.00126718
-0.00233258
-0.00302748
-0.00333023
-0.00325266
-0.00287966
-0.00228128
-0.0015168
-0.00067062
0.000169296
0.000950036
0.00163031
0.00217969
0.00258862
0.00286442
0.00301253
0.00303811
0.00294364
0.00272264
0.00235986
0.00183884
0.0011449
0.00027325
-0.000768468
-0.00195513
-0.00325196
-0.00461508
-0.00600048
-0.00736698
-0.00868148
-0.00992252
-0.011078
-0.0121507
-0.0131484
-0.0140891
-0.0149787
-0.0158223
-0.0165993
-0.0172832
-0.0178174
-0.0181575
-0.0182537
-0.0180898
-0.0176563
-0.0169969
-0.0161642
-0.0152367
-0.0142726
-0.0133568
-0.0125314
-0.0118132
-0.0111675
-0.0105863
-0.010005
-0.00935393
-0.00856581
-0.00986138
-0.00863289
-0.00721549
-0.00559917
-0.00383768
-0.00200377
-3.64145e-05
0.00203073
0.00381963
0.00551655
0.00721679
0.00843702
0.0092513
0.0100159
0.0103518
0.0103594
0.0104717
0.010684
0.0107975
0.0115264
0.0130022
0.0143308
0.016144
0.0182883
0.0206303
0.0225047
0.0242959
0.0256731
0.0265591
0.0272773
0.0270303
0.0263125
0.0256287
0.0240856
0.0219723
0.0199518
0.0175518
0.0147323
0.0120047
0.00934176
0.00661899
0.00408818
0.00188619
-4.05765e-05
-0.00163779
-0.00280062
-0.00354264
-0.0039088
-0.00390107
-0.00355442
-0.00295799
-0.00219111
-0.00132127
-0.000435422
0.000387124
0.00109953
0.00167141
0.00208539
0.0023441
0.00246391
0.00245478
0.00232472
0.00207207
0.0016874
0.00115063
0.00044693
-0.000433146
-0.00148273
-0.00268197
-0.0039928
-0.00537343
-0.00677428
-0.00815537
-0.00947704
-0.0107192
-0.011864
-0.012918
-0.0138867
-0.0147956
-0.0156549
-0.0164824
-0.0172623
-0.0179745
-0.0185645
-0.0189904
-0.0191948
-0.0191576
-0.0188687
-0.01837
-0.0176982
-0.0169281
-0.016124
-0.0153649
-0.0146654
-0.0140453
-0.0134872
-0.0129641
-0.0123769
-0.0116885
-0.0108607
-0.0120431
-0.0106804
-0.00912159
-0.00734046
-0.00541349
-0.00332166
-0.0010995
0.000984278
0.00296106
0.00507092
0.00669328
0.00778666
0.00886263
0.00941803
0.00919923
0.00905737
0.00901115
0.00856913
0.00809226
0.00884463
0.010041
0.0115945
0.0139687
0.0159987
0.0186859
0.0215652
0.0234
0.025391
0.0264398
0.0271278
0.0275955
0.0267861
0.0257234
0.0246477
0.022639
0.020222
0.0179007
0.0152419
0.0123064
0.00953242
0.00687066
0.00426541
0.00192501
-4.33049e-05
-0.00168774
-0.00295893
-0.00378907
-0.00420617
-0.00426489
-0.00398274
-0.00341773
-0.00266314
-0.001803
-0.000909244
-6.77462e-05
0.000658941
0.00123295
0.00164098
0.00187764
0.00196293
0.00191186
0.00174215
0.00145282
0.00104214
0.000488774
-0.00022069
-0.00110289
-0.00215067
-0.00335136
-0.00466459
-0.00605227
-0.00745953
-0.00884896
-0.0101753
-0.0114202
-0.0125611
-0.0136071
-0.014561
-0.0154545
-0.0163024
-0.0171323
-0.0179334
-0.0186942
-0.0193622
-0.0198946
-0.020228
-0.0203419
-0.0202194
-0.0198908
-0.0193867
-0.0187873
-0.0181469
-0.0175246
-0.0169372
-0.016418
-0.0159252
-0.0154076
-0.0147985
-0.0140827
-0.0131762
-0.0141392
-0.0126548
-0.010915
-0.00893132
-0.00678691
-0.00447644
-0.0021626
0.000124147
0.00254764
0.00463732
0.00608915
0.00756476
0.00857268
0.00872533
0.00873025
0.00827321
0.00704948
0.00617165
0.00620885
0.00620651
0.00631157
0.00842348
0.0113935
0.0141849
0.0165643
0.020038
0.0225542
0.0252278
0.0268772
0.0271927
0.0279168
0.0278869
0.0264424
0.0250713
0.0235287
0.0210901
0.0184316
0.015866
0.013014
0.0100634
0.00732349
0.00475297
0.00233784
0.000258265
-0.00143301
-0.00275812
-0.00369191
-0.0041933
-0.00431315
-0.00410227
-0.00360742
-0.00289382
-0.00206626
-0.00120058
-0.000377832
0.00033783
0.000890629
0.00127166
0.00147182
0.00151303
0.0014102
0.00119344
0.000863129
0.000425417
-0.000141911
-0.00084993
-0.0017239
-0.00275744
-0.00394545
-0.00524659
-0.00662688
-0.00802772
-0.00941433
-0.0107383
-0.0119838
-0.0131249
-0.0141721
-0.0151271
-0.0160259
-0.0168864
-0.0177427
-0.0185899
-0.0194223
-0.0201868
-0.0208392
-0.0213151
-0.0215888
-0.0216333
-0.021475
-0.0211463
-0.0207167
-0.0202245
-0.0197304
-0.0192588
-0.0188185
-0.0183504
-0.0178296
-0.0172074
-0.0164228
-0.0153918
-0.0161427
-0.0144825
-0.0125502
-0.0104089
-0.00806691
-0.00556849
-0.00305358
-0.000434176
0.00203784
0.00396133
0.00591635
0.00763935
0.00807591
0.00818647
0.0082892
0.00760893
0.00627206
0.00480152
0.00390532
0.00330626
0.00408152
0.0061147
0.00839295
0.0123488
0.0149368
0.018488
0.0222422
0.024725
0.0274784
0.0285567
0.028366
0.0286897
0.0280278
0.026117
0.0243184
0.0222889
0.0195271
0.0166853
0.0139204
0.0110044
0.00811009
0.00548959
0.00308614
0.000931017
-0.000857878
-0.00223349
-0.0032395
-0.00384416
-0.00405549
-0.00391947
-0.00351206
-0.00287646
-0.0021109
-0.00129793
-0.000528644
0.000143898
0.000652524
0.000985355
0.00112972
0.0011141
0.000951091
0.000680245
0.00030642
-0.000156803
-0.000733816
-0.00143404
-0.00228961
-0.00329688
-0.00445752
-0.0057305
-0.00708554
-0.00846317
-0.00983127
-0.0111415
-0.0123806
-0.0135228
-0.0145799
-0.0155537
-0.0164819
-0.0173834
-0.0182952
-0.0192147
-0.0201362
-0.0210072
-0.0217838
-0.0224004
-0.0228255
-0.0230317
-0.0230441
-0.0228869
-0.0226142
-0.022267
-0.021904
-0.0215293
-0.0211348
-0.0206909
-0.0201761
-0.0195036
-0.0186159
-0.0174971
-0.0179747
-0.0161556
-0.014104
-0.0118067
-0.00926075
-0.0065812
-0.00383772
-0.00110592
0.00131997
0.00369738
0.00595354
0.00694261
0.00760711
0.00844121
0.00791832
0.0071954
0.00649111
0.00407866
0.0022571
0.00257016
0.00297102
0.00545874
0.00705472
0.0087251
0.0134696
0.0182476
0.0230302
0.0248941
0.0275525
0.0303641
0.0304057
0.0296835
0.0294504
0.0280066
0.02567
0.0235025
0.0209803
0.0179903
0.0150327
0.0121686
0.00926331
0.00652531
0.00407469
0.00190795
4.00128e-05
-0.00142784
-0.0025029
-0.00319347
-0.00351971
-0.00348421
-0.00317192
-0.00263552
-0.00196346
-0.00122661
-0.000531529
7.1625e-05
0.000515025
0.000783688
0.000858933
0.00077524
0.000546578
0.000218014
-0.000200862
-0.000690448
-0.00127582
-0.00196593
-0.00279677
-0.00376822
-0.0048871
-0.00611493
-0.00742471
-0.00875933
-0.01009
-0.0113721
-0.012596
-0.0137396
-0.0148168
-0.0158303
-0.0168155
-0.0177903
-0.0187873
-0.019801
-0.0208223
-0.0218013
-0.0226935
-0.0234358
-0.0239975
-0.0243556
-0.0245265
-0.024527
-0.0244063
-0.0242039
-0.0239544
-0.0236548
-0.0233111
-0.0228967
-0.0223547
-0.0216145
-0.0206658
-0.0194752
-0.0195937
-0.0177154
-0.0155426
-0.0130425
-0.0103734
-0.00760211
-0.00467886
-0.00182803
0.000790961
0.00338863
0.00526567
0.00646828
0.00813193
0.00840401
0.00752531
0.00595137
0.00433676
0.00147014
0.00140072
0.00239455
0.00114772
0.00617501
0.00619626
0.00453446
0.0124346
0.0184916
0.0231516
0.0274362
0.0291931
0.0311863
0.0330597
0.0322737
0.0309398
0.0298921
0.0277758
0.0250864
0.0224884
0.0196363
0.0165006
0.0134965
0.0106216
0.00784377
0.00529234
0.00308254
0.00117627
-0.000379747
-0.00155238
-0.00232963
-0.00276472
-0.00285196
-0.00265391
-0.00222605
-0.00166344
-0.0010246
-0.000415478
0.000106759
0.000473017
0.000668737
0.000671541
0.000515195
0.000218025
-0.000170953
-0.000638248
-0.00115986
-0.00175735
-0.00243968
-0.00324397
-0.00417357
-0.00523863
-0.00640572
-0.00765124
-0.00892374
-0.0101989
-0.0114395
-0.0126413
-0.013789
-0.0148979
-0.0159721
-0.0170412
-0.0181167
-0.0192203
-0.0203409
-0.0214642
-0.0225427
-0.0235336
-0.0243828
-0.0250637
-0.0255549
-0.0258651
-0.0260116
-0.026035
-0.0259586
-0.0258035
-0.0255799
-0.0252858
-0.02487
-0.0242886
-0.0235203
-0.0225232
-0.0212144
-0.0210023
-0.0190297
-0.0167042
-0.0141273
-0.0113995
-0.00848011
-0.00547967
-0.00255858
0.000293932
0.00275225
0.00455343
0.00678548
0.00803665
0.00755883
0.00578656
0.00177616
-0.000612697
-0.000858397
-0.000117357
0.000831139
0.00162258
0.00387565
0.00459737
0.00503522
0.00968779
0.0168193
0.0219942
0.0291722
0.0336333
0.0338861
0.0349652
0.035325
0.0336108
0.0318509
0.0299392
0.0272102
0.0242351
0.0213187
0.0182059
0.0150574
0.0120784
0.00929175
0.0066935
0.00439585
0.00243216
0.000818125
-0.000453402
-0.00134015
-0.00187939
-0.00208858
-0.00201962
-0.00170987
-0.00125713
-0.000723778
-0.000205216
0.000236714
0.00052767
0.000650276
0.000582687
0.000354059
-1.34177e-05
-0.000467468
-0.000988885
-0.00155037
-0.00216707
-0.00284764
-0.0036276
-0.00451367
-0.00551784
-0.00661348
-0.00778086
-0.00897736
-0.0101847
-0.0113761
-0.0125537
-0.0137108
-0.0148634
-0.0160153
-0.0171866
-0.0183788
-0.0195988
-0.0208282
-0.0220467
-0.0232105
-0.0242823
-0.0252188
-0.0259966
-0.0265974
-0.0270285
-0.0273046
-0.0274492
-0.0274778
-0.0274117
-0.0272527
-0.0269769
-0.0265503
-0.0259552
-0.0251475
-0.0240591
-0.0226675
-0.0220622
-0.0199449
-0.0175691
-0.0150172
-0.0121599
-0.00908956
-0.00615129
-0.00326827
-0.000304678
0.00219393
0.00422161
0.00637354
0.00727289
0.00545219
4.10335e-06
-0.00306965
-0.00279453
-0.00158303
-0.000766287
0.00134205
0.00253327
0.00109797
0.00304353
0.00524919
0.00631096
0.0125081
0.0235712
0.0310242
0.0366673
0.0389897
0.0380434
0.037853
0.0367953
0.0344236
0.0320012
0.0294259
0.0262842
0.0230522
0.0199065
0.0167296
0.0136201
0.0107588
0.00813843
0.00577924
0.00373647
0.00205676
0.000707627
-0.000287885
-0.000939309
-0.00126372
-0.00131715
-0.00112919
-0.000783058
-0.000347555
8.5294e-05
0.000452039
0.000676266
0.000731286
0.00059618
0.000297007
-0.00014075
-0.000663342
-0.00124342
-0.00185114
-0.00249478
-0.00318172
-0.00394342
-0.00478975
-0.00573326
-0.00675478
-0.00783931
-0.00895523
-0.0100916
-0.0112338
-0.0123902
-0.0135625
-0.0147665
-0.0160038
-0.017282
-0.0185913
-0.0199233
-0.0212522
-0.0225523
-0.0237854
-0.0249204
-0.0259237
-0.0267758
-0.0274644
-0.0279948
-0.028374
-0.0286148
-0.0287317
-0.0287351
-0.0286092
-0.0283356
-0.0279036
-0.0272766
-0.0263891
-0.0252268
-0.023805
-0.022665
-0.0205247
-0.018133
-0.0154425
-0.0125304
-0.00960263
-0.00661053
-0.00358606
-0.00088351
0.00151605
0.00395181
0.00552116
0.00495836
0.000668869
-0.00439241
-0.00461385
-0.00345456
-0.00173082
-0.00027815
0.000470821
0.00205961
0.00285756
0.00246256
0.00275941
0.00500139
0.0076721
0.0215771
0.0358702
0.0404495
0.0427192
0.0422685
0.0409322
0.039591
0.0372608
0.0343312
0.0314343
0.0282764
0.0248878
0.0215401
0.0182918
0.0151462
0.0121953
0.0095049
0.00711317
0.00501575
0.00325428
0.00183485
0.00075447
-4.03749e-06
-0.000438558
-0.000597017
-0.000519226
-0.000272555
7.69711e-05
0.000435388
0.000734128
0.000899084
0.00089376
0.000696528
0.00033138
-0.000172335
-0.000761306
-0.00140043
-0.00205782
-0.00273468
-0.00343637
-0.00418893
-0.00500446
-0.00589507
-0.00684907
-0.00785689
-0.0088984
-0.00997018
-0.0110696
-0.0122109
-0.0134028
-0.014659
-0.0159776
-0.0173538
-0.0187668
-0.0201947
-0.0216053
-0.0229697
-0.0242554
-0.0254362
-0.0264873
-0.0273947
-0.0281506
-0.0287554
-0.0292117
-0.0295286
-0.0297109
-0.0297512
-0.0296386
-0.0293643
-0.028899
-0.0281996
-0.0272482
-0.0260363
-0.0245192
-0.0229151
-0.0207683
-0.0182901
-0.0154985
-0.0126713
-0.00983206
-0.00672042
-0.00371626
-0.00130603
0.000921198
0.00333855
0.00469964
0.0018341
-0.00409112
-0.0058453
-0.00493457
-0.00359308
-0.00173241
3.57615e-05
0.000248219
0.000958279
0.00304075
0.00339155
0.00319863
0.00427198
0.00459572
0.01511
0.0359603
0.0454328
0.0460561
0.0463023
0.0444442
0.0420847
0.0397518
0.0367296
0.0333301
0.0299882
0.02657
0.0230597
0.019675
0.0164901
0.0134901
0.0107319
0.00829266
0.00615969
0.00433951
0.00285245
0.00170152
0.000861562
0.000332737
8.35803e-05
7.18925e-05
0.000234685
0.00050863
0.000803785
0.0010444
0.0011571
0.00110008
0.000851156
0.00043008
-0.000130179
-0.000777318
-0.00147099
-0.0021774
-0.00289043
-0.00361338
-0.00436665
-0.00516317
-0.0060144
-0.00691537
-0.00786155
-0.00884336
-0.00986424
-0.0109317
-0.0120646
-0.0132767
-0.0145787
-0.0159649
-0.0174197
-0.0189133
-0.0204129
-0.0218828
-0.0232921
-0.0246127
-0.025823
-0.0269061
-0.027852
-0.0286546
-0.0293114
-0.0298235
-0.0301926
-0.0304116
-0.0304683
-0.0303569
-0.0300585
-0.0295333
-0.0287636
-0.0277542
-0.0264597
-0.0248288
-0.0229365
-0.0206645
-0.0181324
-0.0154613
-0.012603
-0.00955994
-0.00669309
-0.00406585
-0.00127453
0.00108436
0.0023159
0.00322715
-0.00184475
-0.00669518
-0.00633877
-0.00487066
-0.00293099
-0.00206385
-0.000834316
0.000980444
0.00168752
0.00197669
0.00313026
0.00417787
0.00407762
0.00515629
0.00865853
0.0303184
0.0499952
0.0497872
0.0495995
0.0476475
0.0446577
0.0417295
0.0385773
0.035056
0.0314623
0.0278653
0.0243037
0.0208479
0.0175602
0.0145175
0.0117419
0.00924885
0.00707451
0.00522683
0.00369003
0.0024772
0.001581
0.00098416
0.000661535
0.000581203
0.000680701
0.000893188
0.00113684
0.0013319
0.00140327
0.00130634
0.00101933
0.000556633
-4.69164e-05
-0.00074001
-0.00147902
-0.00222847
-0.00297593
-0.00372267
-0.00448404
-0.00527279
-0.00609999
-0.00696587
-0.00786982
-0.0088106
-0.00979729
-0.0108447
-0.0119749
-0.0132044
-0.0145415
-0.0159766
-0.017486
-0.0190335
-0.0205796
-0.022086
-0.0235213
-0.0248609
-0.0260875
-0.0271895
-0.0281592
-0.0289915
-0.0296835
-0.0302328
-0.0306309
-0.0308676
-0.0309324
-0.030806
-0.0304599
-0.029882
-0.0290602
-0.0279589
-0.0265595
-0.0248876
-0.0227954
-0.0204569
-0.0179277
-0.0152819
-0.0123768
-0.00933456
-0.00659681
-0.00398397
-0.00121086
0.000954725
0.00211801
0.00134282
-0.0041109
-0.00719514
-0.00629908
-0.00472471
-0.00300514
-0.00194627
-0.00096285
0.000765496
0.00192308
0.00225845
0.00329455
0.00419646
0.00421321
0.00568909
0.00703222
0.0259696
0.0505938
0.0540521
0.0517534
0.0496636
0.046818
0.0433114
0.0398165
0.0362748
0.0325527
0.0287892
0.0251657
0.0216685
0.0183205
0.0152338
0.0124377
0.00992008
0.00771648
0.00584329
0.00427924
0.00302808
0.00209077
0.00144995
0.00108035
0.000951983
0.00100789
0.00117931
0.00138686
0.00155003
0.00159421
0.00147133
0.0011597
0.000670603
3.87866e-05
-0.000685839
-0.0014571
-0.00223843
-0.00301326
-0.0037807
-0.00455241
-0.00534089
-0.00615675
-0.00700355
-0.0078836
-0.00880104
-0.00976872
-0.010806
-0.0119367
-0.0131788
-0.0145385
-0.0160034
-0.0175447
-0.0191223
-0.020693
-0.0222173
-0.023664
-0.025011
-0.0262442
-0.0273549
-0.028337
-0.0291865
-0.0298991
-0.0304681
-0.0308811
-0.0311259
-0.0311871
-0.0310381
-0.0306553
-0.0300347
-0.0291559
-0.0279803
-0.0265187
-0.024806
-0.0226338
-0.0203598
-0.0178265
-0.0150209
-0.0121826
-0.00939583
-0.00644395
-0.00359085
-0.00145587
0.000663251
0.00287158
0.000937048
-0.00438633
-0.00788883
-0.00599414
-0.00458803
-0.00363575
-0.00179203
-0.000270988
0.000404129
0.00149019
0.00285891
0.00332339
0.0039144
0.00541489
0.00560234
0.00559496
0.02509
0.0497288
0.0562436
0.0537701
0.0506657
0.0476232
0.0442176
0.0406007
0.0368451
0.0330691
0.0293232
0.0256193
0.0220541
0.0187222
0.0156164
0.0127786
0.0102617
0.00805387
0.0061546
0.00457838
0.00331536
0.00235324
0.00168906
0.00129957
0.00114621
0.00117876
0.00133092
0.00152042
0.00166676
0.00169796
0.00156284
0.00123908
0.000737496
9.20781e-05
-0.000648558
-0.00143649
-0.00223475
-0.00302487
-0.00380434
-0.00458302
-0.00537338
-0.00618554
-0.00702457
-0.00789458
-0.0088022
-0.00976196
-0.0107955
-0.0119273
-0.013176
-0.0145464
-0.0160247
-0.0175801
-0.0191703
-0.0207506
-0.022281
-0.0237311
-0.02508
-0.0263147
-0.0274281
-0.0284156
-0.0292733
-0.0299946
-0.030571
-0.030992
-0.0312404
-0.0312916
-0.0311283
-0.0307348
-0.0300818
-0.0291518
-0.0279571
-0.0264839
-0.0246969
-0.0226338
-0.0203598
-0.0178265
-0.0150209
-0.0121826
-0.00939583
-0.00644395
-0.00359085
-0.00145587
0.000663251
0.00287158
0.000937048
-0.00438633
-0.00788883
-0.00599414
-0.00458803
-0.00363575
-0.00179203
-0.000270988
0.000404129
0.00149019
0.00285891
0.00332339
0.0039144
0.00541489
0.00560234
0.00559496
0.02509
0.0497288
0.0562436
0.0537701
0.0506657
0.0476232
0.0442176
0.0406007
0.0368451
0.0330691
0.0293232
0.0256193
0.0220541
0.0187222
0.0156164
0.0127786
0.0102617
0.00805387
0.0061546
0.00457838
0.00331536
0.00235324
0.00168906
0.00129957
0.00114621
0.00117876
0.00133092
0.00152042
0.00166676
0.00169796
0.00156284
0.00123908
0.000737496
9.20781e-05
-0.000648558
-0.00143649
-0.00223475
-0.00302487
-0.00380434
-0.00458302
-0.00537338
-0.00618554
-0.00702457
-0.00789458
-0.0088022
-0.00976196
-0.0107955
-0.0119273
-0.013176
-0.0145464
-0.0160247
-0.0175801
-0.0191703
-0.0207506
-0.022281
-0.0237311
-0.02508
-0.0263147
-0.0274281
-0.0284156
-0.0292733
-0.0299946
-0.030571
-0.030992
-0.0312404
-0.0312916
-0.0311283
-0.0307348
-0.0300818
-0.0291518
-0.0279571
-0.0264839
-0.0246969
-0.0227954
-0.0204569
-0.0179277
-0.0152819
-0.0123768
-0.00933456
-0.00659681
-0.00398397
-0.00121086
0.000954725
0.00211801
0.00134282
-0.0041109
-0.00719514
-0.00629908
-0.00472471
-0.00300514
-0.00194627
-0.00096285
0.000765496
0.00192308
0.00225845
0.00329455
0.00419646
0.00421321
0.00568909
0.00703222
0.0259696
0.0505938
0.0540521
0.0517534
0.0496636
0.046818
0.0433114
0.0398165
0.0362748
0.0325527
0.0287892
0.0251657
0.0216685
0.0183205
0.0152338
0.0124377
0.00992008
0.00771648
0.00584329
0.00427924
0.00302808
0.00209077
0.00144995
0.00108035
0.000951983
0.00100789
0.00117931
0.00138686
0.00155003
0.00159421
0.00147133
0.0011597
0.000670603
3.87866e-05
-0.000685839
-0.0014571
-0.00223843
-0.00301326
-0.0037807
-0.00455241
-0.00534089
-0.00615675
-0.00700355
-0.0078836
-0.00880104
-0.00976872
-0.010806
-0.0119367
-0.0131788
-0.0145385
-0.0160034
-0.0175447
-0.0191223
-0.020693
-0.0222173
-0.023664
-0.025011
-0.0262442
-0.0273549
-0.028337
-0.0291865
-0.0298991
-0.0304681
-0.0308811
-0.0311259
-0.0311871
-0.0310381
-0.0306553
-0.0300347
-0.0291559
-0.0279803
-0.0265187
-0.024806
-0.0229365
-0.0206645
-0.0181324
-0.0154613
-0.012603
-0.00955994
-0.00669309
-0.00406585
-0.00127453
0.00108436
0.0023159
0.00322715
-0.00184475
-0.00669518
-0.00633877
-0.00487066
-0.00293099
-0.00206385
-0.000834316
0.000980444
0.00168752
0.00197669
0.00313026
0.00417787
0.00407762
0.00515629
0.00865853
0.0303184
0.0499952
0.0497872
0.0495995
0.0476475
0.0446577
0.0417295
0.0385773
0.035056
0.0314623
0.0278653
0.0243037
0.0208479
0.0175602
0.0145175
0.0117419
0.00924885
0.00707451
0.00522683
0.00369003
0.0024772
0.001581
0.00098416
0.000661535
0.000581203
0.000680701
0.000893188
0.00113684
0.0013319
0.00140327
0.00130634
0.00101933
0.000556633
-4.69164e-05
-0.00074001
-0.00147902
-0.00222847
-0.00297593
-0.00372267
-0.00448404
-0.00527279
-0.00609999
-0.00696587
-0.00786982
-0.0088106
-0.00979729
-0.0108447
-0.0119749
-0.0132044
-0.0145415
-0.0159766
-0.017486
-0.0190335
-0.0205796
-0.022086
-0.0235213
-0.0248609
-0.0260875
-0.0271895
-0.0281592
-0.0289915
-0.0296835
-0.0302328
-0.0306309
-0.0308676
-0.0309324
-0.030806
-0.0304599
-0.029882
-0.0290602
-0.0279589
-0.0265595
-0.0248876
-0.0229151
-0.0207683
-0.0182901
-0.0154985
-0.0126713
-0.00983206
-0.00672042
-0.00371626
-0.00130603
0.000921198
0.00333855
0.00469964
0.0018341
-0.00409112
-0.0058453
-0.00493457
-0.00359308
-0.00173241
3.57615e-05
0.000248219
0.000958279
0.00304075
0.00339155
0.00319863
0.00427198
0.00459572
0.01511
0.0359603
0.0454328
0.0460561
0.0463023
0.0444442
0.0420847
0.0397518
0.0367296
0.0333301
0.0299882
0.02657
0.0230597
0.019675
0.0164901
0.0134901
0.0107319
0.00829266
0.00615969
0.00433951
0.00285245
0.00170152
0.000861562
0.000332737
8.35803e-05
7.18925e-05
0.000234685
0.00050863
0.000803785
0.0010444
0.0011571
0.00110008
0.000851156
0.00043008
-0.000130179
-0.000777318
-0.00147099
-0.0021774
-0.00289043
-0.00361338
-0.00436665
-0.00516317
-0.0060144
-0.00691537
-0.00786155
-0.00884336
-0.00986424
-0.0109317
-0.0120646
-0.0132767
-0.0145787
-0.0159649
-0.0174197
-0.0189133
-0.0204129
-0.0218828
-0.0232921
-0.0246127
-0.025823
-0.0269061
-0.027852
-0.0286546
-0.0293114
-0.0298235
-0.0301926
-0.0304116
-0.0304683
-0.0303569
-0.0300585
-0.0295333
-0.0287636
-0.0277542
-0.0264597
-0.0248288
-0.022665
-0.0205247
-0.018133
-0.0154425
-0.0125304
-0.00960263
-0.00661053
-0.00358606
-0.00088351
0.00151605
0.00395181
0.00552116
0.00495836
0.000668869
-0.00439241
-0.00461385
-0.00345456
-0.00173082