# vtk DataFile Version 3.0
fluid_state
ASCII
DATASET RECTILINEAR_GRID
DIMENSIONS 100 40 1
X_COORDINATES 100 float
0.5 1.5 2.5 3.5 4.5 5.5 6.5 7.5 8.5 9.5 10.5 11.5 12.5 13.5 14.5 15.5 16.5 17.5 18.5 19.5 20.5 21.5 22.5 23.5 24.5 25.5 26.5 27.5 28.5 29.5 30.5 31.5 32.5 33.5 34.5 35.5 36.5 37.5 38.5 39.5 40.5 41.5 42.5 43.5 44.5 45.5 46.5 47.5 48.5 49.5 50.5 51.5 52.5 53.5 54.5 55.5 56.5 57.5 58.5 59.5 60.5 61.5 62.5 63.5 64.5 65.5 66.5 67.5 68.5 69.5 70.5 71.5 72.5 73.5 74.5 75.5 76.5 77.5 78.5 79.5 80.5 81.5 82.5 83.5 84.5 85.5 86.5 87.5 88.5 89.5 90.5 91.5 92.5 93.5 94.5 95.5 96.5 97.5 98.5 99.5 
Y_COORDINATES 40 float
0.5 1.5 2.5 3.5 4.5 5.5 6.5 7.5 8.5 9.5 10.5 11.5 12.5 13.5 14.5 15.5 16.5 17.5 18.5 19.5 20.5 21.5 22.5 23.5 24.5 25.5 26.5 27.5 28.5 29.5 30.5 31.5 32.5 33.5 34.5 35.5 36.5 37.5 38.5 39.5 
Z_COORDINATES 1 float
0
POINT_DATA 4000
SCALARS density_difference float 1
LOOKUP_TABLE default
0.000754246
0.000761391
0.000767014
0.000770449
0.000768686
0.000759243
0.000741907
0.000722691
0.000694018
0.000644231
0.000591901
0.000535322
0.000449124
0.000354901
0.000261379
0.000144029
2.12276e-05
-9.78639e-05
-0.000229034
-0.000350775
-0.000459042
-0.000574321
-0.000667078
-0.000736489
-0.000809217
-0.000860806
-0.00088793
-0.000916643
-0.000931334
-0.000927379
-0.000923384
-0.000914986
-0.000895411
-0.000871223
-0.000848264
-0.000823631
-0.000792834
-0.000760959
-0.000732545
-0.000702647
-0.000669219
-0.000637537
-0.000608265
-0.000577433
-0.000545641
-0.000515975
-0.000487309
-0.000457721
-0.000428476
-0.000400767
-0.00037331
-0.000345575
-0.000318545
-0.000292385
-0.000266227
-0.000240182
-0.000214744
-0.000189713
-0.00016467
-0.000139877
-0.00011546
-9.12107e-05
-6.69913e-05
-4.30003e-05
-1.91872e-05
4.54295e-06
2.82269e-05
5.17654e-05
7.52304e-05
9.86272e-05
0.000122007
0.000145309
0.000168552
0.00019174
0.000214971
0.000238118
0.000261168
0.000284232
0.000307374
0.000330307
0.000353138
0.00037613
0.000399085
0.000421595
0.000444177
0.000467047
0.000489423
0.000511189
0.000533504
0.000555828
0.000576782
0.000597484
0.000619243
0.000639659
0.000657924
0.000677138
0.000696654
0.000712344
0.000726404
0.000741843
0.000745091
0.000752177
0.000757126
0.000758617
0.000754542
0.000740547
0.000724336
0.000707032
0.00066703
0.0006146
0.000573936
0.000508463
0.000411675
0.000328687
0.00024032
0.000116569
-7.70412e-06
-0.000114789
-0.000235744
-0.000364536
-0.000466767
-0.000565497
-0.000662037
-0.000726542
-0.000787661
-0.000847663
-0.000869593
-0.000884973
-0.000911045
-0.000912114
-0.0008963
-0.000888607
-0.0008792
-0.000855839
-0.000826961
-0.000804723
-0.000781458
-0.000749449
-0.000717439
-0.000690932
-0.00066205
-0.000629209
-0.000598653
-0.00057086
-0.000541017
-0.000510303
-0.000481693
-0.000454133
-0.000425414
-0.000397134
-0.000370188
-0.000343558
-0.000316477
-0.000290158
-0.000264499
-0.000238942
-0.000213324
-0.00018837
-0.000163646
-0.000139019
-0.000114469
-9.0377e-05
-6.62951e-05
-4.23522e-05
-1.84838e-05
5.10236e-06
2.87674e-05
5.22617e-05
7.57341e-05
9.90413e-05
0.000122446
0.000145657
0.00016891
0.000192066
0.000215285
0.000238291
0.000261418
0.000284461
0.000307467
0.000330276
0.000353304
0.000376142
0.000398791
0.000421361
0.0004442
0.000466521
0.000488552
0.000510776
0.000533037
0.000554189
0.000575227
0.000596709
0.000617337
0.000636216
0.000655592
0.000674943
0.000691709
0.000706627
0.000722234
0.000735669
0.000739154
0.000748904
0.000752037
0.000748479
0.00074356
0.000735045
0.00071713
0.000685306
0.000649942
0.000613835
0.000551084
0.000471012
0.000405434
0.000314351
0.000193782
9.20777e-05
-1.9453e-05
-0.000152806
-0.000266011
-0.000378836
-0.000495978
-0.000580654
-0.000664739
-0.000747967
-0.000791551
-0.000829672
-0.000872832
-0.000886487
-0.000888065
-0.000894886
-0.000891231
-0.000875052
-0.000856103
-0.000840406
-0.000819028
-0.000789794
-0.000762843
-0.000739135
-0.000709858
-0.000678199
-0.000650126
-0.00062277
-0.00059203
-0.000561962
-0.000534162
-0.000506058
-0.000476605
-0.000448602
-0.000421568
-0.000394214
-0.000366644
-0.000340334
-0.000314243
-0.000288114
-0.000262185
-0.000237093
-0.000211914
-0.00018694
-0.000162177
-0.000137913
-0.000113493
-8.93792e-05
-6.53485e-05
-4.16315e-05
-1.77629e-05
5.80499e-06
2.94077e-05
5.2771e-05
7.6287e-05
9.95444e-05
0.000122892
0.000146029
0.000169343
0.000192413
0.000215572
0.000238563
0.000261751
0.00028463
0.000307595
0.000330479
0.000353488
0.00037604
0.000398771
0.000421498
0.000444052
0.000466014
0.000488447
0.000510702
0.000532159
0.000553201
0.000575095
0.00059588
0.000615145
0.000634869
0.000655141
0.000672167
0.000687778
0.000704984
0.00072015
0.000729631
0.000739997
0.000745393
0.000748055
0.000748025
0.000741425
0.000730462
0.000712122
0.00067919
0.000646785
0.000605954
0.000533063
0.000460734
0.000393523
0.000284676
0.000164971
6.19318e-05
-5.60021e-05
-0.000196229
-0.00031989
-0.000422494
-0.000538044
-0.000635784
-0.00070417
-0.000778528
-0.000828136
-0.000848022
-0.000882947
-0.000903671
-0.000891502
-0.000887469
-0.000887259
-0.000872006
-0.000846617
-0.000825501
-0.000807582
-0.0007818
-0.000750496
-0.000724729
-0.000699835
-0.00066992
-0.000639215
-0.000612372
-0.00058474
-0.000555045
-0.000526158
-0.000499366
-0.000471592
-0.000443453
-0.000416263
-0.000390114
-0.000363244
-0.000336771
-0.000310936
-0.000285612
-0.000259872
-0.000234753
-0.000209905
-0.000185359
-0.0001606
-0.000136423
-0.000112246
-8.8324e-05
-6.42745e-05
-4.06808e-05
-1.69373e-05
6.53992e-06
3.01414e-05
5.3406e-05
7.68769e-05
0.000100059
0.000123403
0.000146492
0.000169775
0.000192754
0.000215956
0.000238927
0.000262025
0.000284834
0.000307935
0.000330732
0.000353555
0.000376182
0.000399114
0.000421508
0.000443881
0.000466242
0.000488691
0.000510209
0.000531883
0.000553654
0.000574801
0.000594672
0.000615201
0.00063532
0.000653477
0.000670564
0.000688646
0.000704257
0.000716617
0.000728801
0.000742205
0.000745486
0.000750919
0.000753578
0.000745204
0.000729417
0.00071244
0.000689592
0.00064831
0.000586488
0.000533557
0.000470514
0.000353257
0.000245838
0.000160436
1.12819e-05
-0.000136827
-0.000245922
-0.000384376
-0.00051624
-0.000609295
-0.000717792
-0.000790375
-0.000826264
-0.000886171
-0.00092048
-0.00090929
-0.000916348
-0.000924682
-0.000908706
-0.000882886
-0.000866274
-0.00085235
-0.00082392
-0.000791687
-0.000770544
-0.000746706
-0.000714301
-0.000684566
-0.000660435
-0.000632241
-0.000601494
-0.000573813
-0.000547968
-0.000519347
-0.000491012
-0.000464543
-0.000438394
-0.000410884
-0.000384504
-0.000358875
-0.000333241
-0.000307134
-0.00028211
-0.000257169
-0.000232334
-0.000207394
-0.00018324
-0.000158884
-0.00013479
-0.000110645
-8.7031e-05
-6.31379e-05
-3.95853e-05
-1.59168e-05
7.36469e-06
3.09322e-05
5.41499e-05
7.75474e-05
0.000100625
0.000123989
0.00014701
0.000170238
0.000193188
0.000216425
0.000239291
0.000262374
0.000285232
0.000308328
0.000330973
0.00035389
0.000376624
0.000399414
0.000421667
0.000444359
0.000466764
0.000488829
0.000510441
0.000532734
0.000554172
0.000574743
0.000595399
0.000616646
0.000635573
0.000653513
0.000672575
0.000690633
0.000704059
0.000717779
0.000732759
0.000745142
0.000756369
0.000761044
0.000756595
0.000754086
0.000744962
0.000721135
0.000694272
0.00065506
0.000594759
0.000536341
0.000451675
0.000334005
0.000231318
0.000106272
-5.41129e-05
-0.000202494
-0.000340243
-0.00048285
-0.000633335
-0.000733348
-0.000819643
-0.000904707
-0.000941004
-0.000961986
-0.000994618
-0.000982106
-0.000961256
-0.000956653
-0.000935735
-0.000905042
-0.000875286
-0.000849658
-0.000825039
-0.000792441
-0.000760774
-0.000734655
-0.000707405
-0.000676069
-0.000647341
-0.000620771
-0.000593063
-0.000563975
-0.000537098
-0.000510678
-0.00048367
-0.000456431
-0.000430791
-0.000404891
-0.00037893
-0.000353132
-0.000328365
-0.000303129
-0.000278215
-0.00025345
-0.000229316
-0.000204747
-0.000180674
-0.000156584
-0.000132917
-0.000108906
-8.5401e-05
-6.1718e-05
-3.83897e-05
-1.47728e-05
8.40242e-06
3.18485e-05
5.4944e-05
7.83207e-05
0.000101328
0.000124628
0.000147565
0.000170814
0.000193732
0.000216904
0.000239724
0.000262907
0.000285717
0.000308714
0.000331432
0.000354524
0.000377079
0.000399803
0.000422397
0.000445192
0.000467177
0.000489514
0.000511806
0.000533733
0.000554674
0.00057645
0.000597742
0.000617626
0.000636936
0.000657527
0.000675821
0.000691683
0.000708493
0.000725363
0.000736031
0.000757179
0.000769275
0.000772069
0.000770722
0.000771665
0.000762761
0.000738866
0.000705694
0.000668248
0.000621199
0.000533461
0.000420054
0.000344867
0.000214822
5.40709e-06
-0.0001198
-0.000259175
-0.000480659
-0.000632225
-0.000755151
-0.000898057
-0.000966054
-0.00103088
-0.00110343
-0.00107976
-0.00105489
-0.00107773
-0.00105087
-0.000995057
-0.000957423
-0.000937659
-0.000904648
-0.000853349
-0.000819958
-0.000797108
-0.000761183
-0.000722621
-0.0006961
-0.000669618
-0.000637213
-0.000606924
-0.000581978
-0.000554775
-0.000526023
-0.000499479
-0.000474831
-0.000448239
-0.000422006
-0.00039704
-0.00037259
-0.000346988
-0.000322307
-0.000298035
-0.000273925
-0.000249249
-0.000225455
-0.00020156
-0.000177864
-0.000153869
-0.000130553
-0.000106919
-8.35853e-05
-6.00122e-05
-3.6944e-05
-1.35e-05
9.58429e-06
3.29297e-05
5.58712e-05
7.91918e-05
0.00010213
0.000125359
0.000148238
0.000171485
0.00019433
0.000217487
0.000240335
0.000263512
0.00028625
0.000309342
0.000332145
0.000355171
0.000377724
0.000400726
0.000423373
0.000446027
0.000468271
0.000491087
0.000513232
0.000535105
0.000556865
0.000579151
0.000599961
0.000620401
0.00064134
0.000661963
0.000679671
0.00069771
0.000716632
0.000732299
0.000743563
0.000774651
0.000779783
0.000789444
0.000800734
0.000792793
0.000776797
0.000770435
0.000741097
0.000684833
0.000631277
0.00055015
0.000438192
0.000319515
0.000149255
-1.99521e-05
-0.000191671
-0.000409015
-0.00060046
-0.000784332
-0.000925664
-0.00107944
-0.0011747
-0.0011911
-0.00121669
-0.00123795
-0.00118905
-0.00115282
-0.00111167
-0.00106116
-0.00101716
-0.000959846
-0.0009159
-0.000878672
-0.000832062
-0.000789421
-0.000757388
-0.000723494
-0.000687236
-0.000655345
-0.000627622
-0.000597776
-0.000568295
-0.000541475
-0.000515874
-0.00048872
-0.000462877
-0.000438163
-0.000413542
-0.000388132
-0.000364051
-0.000340061
-0.000316052
-0.000291747
-0.000268412
-0.000244703
-0.000221185
-0.00019751
-0.000174466
-0.000150949
-0.000127792
-0.000104427
-8.15044e-05
-5.81461e-05
-3.52019e-05
-1.19657e-05
1.08944e-05
3.4146e-05
5.69997e-05
8.01914e-05
0.000103013
0.000126219
0.000149054
0.00017222
0.00019502
0.00021823
0.000241055
0.000264168
0.000286968
0.000310194
0.00033293
0.000355946
0.000378775
0.000401923
0.00042439
0.0004473
0.000470131
0.000492875
0.000514832
0.000537689
0.000560204
0.000581837
0.000603112
0.000625846
0.000646883
0.000666234
0.00068681
0.000708319
0.000724778
0.000740287
0.000759575
0.000790264
0.000802898
0.000817432
0.000824004
0.000820416
0.000815752
0.000804221
0.000772842
0.000724468
0.000652896
0.000572857
0.000476597
0.000278911
8.60449e-05
-1.07777e-05
-0.000291387
-0.000578554
-0.000702261
-0.000942082
-0.00115313
-0.00124395
-0.00137193
-0.00141245
-0.00133025
-0.001358
-0.00135058
-0.00123398
-0.0011642
-0.0011236
-0.00107523
-0.000996477
-0.000929035
-0.000893268
-0.00084861
-0.000792305
-0.000751758
-0.000719953
-0.000682261
-0.000644521
-0.000615176
-0.000586869
-0.000556402
-0.000527772
-0.000502998
-0.000477264
-0.000451127
-0.00042641
-0.000403236
-0.000378878
-0.0003549
-0.000331588
-0.00030881
-0.000285145
-0.000262112
-0.000239156
-0.000216432
-0.00019313
-0.000170437
-0.000147491
-0.000124771
-0.000101642
-7.90196e-05
-5.60103e-05
-3.32883e-05
-1.02158e-05
1.244e-05
3.5515e-05
5.82514e-05
8.13341e-05
0.000104057
0.000127191
0.000149953
0.000173077
0.000195877
0.000219055
0.000241839
0.000265022
0.000287891
0.000311074
0.000333866
0.000357121
0.00038001
0.000403118
0.000425915
0.000449226
0.000471993
0.000494913
0.00051772
0.000540955
0.000563293
0.000585879
0.000608619
0.000631316
0.0006526
0.000674563
0.000696716
0.000717465
0.000736264
0.000756627
0.00077581
0.000811124
0.000835625
0.000846632
0.000847498
0.000863751
0.000869939
0.000835896
0.000807852
0.000791278
0.000707348
0.000588006
0.000482794
0.000315802
0.000104984
-0.00014723
-0.000398082
-0.000548933
-0.00084132
-0.00113503
-0.00135855
-0.00142779
-0.00150033
-0.00158991
-0.0015708
-0.00144546
-0.00138477
-0.00132193
-0.00127796
-0.00118149
-0.00107779
-0.0010339
-0.000976234
-0.000897932
-0.000845113
-0.000806121
-0.000757247
-0.000708854
-0.000673703
-0.000640546
-0.000604072
-0.000571474
-0.000544757
-0.000516669
-0.000488416
-0.00046325
-0.000439886
-0.000414884
-0.000390904
-0.000368306
-0.000345875
-0.000322441
-0.000300099
-0.000277919
-0.00025563
-0.000232835
-0.000210823
-0.000188437
-0.000166106
-0.000143454
-0.000121308
-9.86637e-05
-7.62464e-05
-5.35172e-05
-3.11529e-05
-8.31779e-06
1.421e-05
3.7082e-05
5.96286e-05
8.26083e-05
0.000105261
0.000128269
0.000150955
0.00017407
0.000196843
0.000219953
0.00024277
0.000266028
0.000288884
0.000312074
0.000335064
0.000358449
0.000381312
0.000404628
0.000427868
0.000451264
0.000474064
0.000497697
0.000521182
0.000544284
0.000567118
0.000591387
0.000614699
0.000637012
0.000660374
0.000685275
0.000706891
0.000727898
0.000752559
0.000775893
0.00079169
0.000840787
0.000860638
0.000878169
0.000896623
0.000908357
0.000905101
0.000899129
0.000883901
0.00083279
0.00076254
0.000666451
0.000502336
0.000357708
0.000163534
-0.000267741
-0.000458169
-0.000521373
-0.000926992
-0.00115638
-0.00142767
-0.00171899
-0.00174799
-0.00162914
-0.00167791
-0.00154539
-0.00144578
-0.0014223
-0.00132375
-0.00122034
-0.0011183
-0.00105101
-0.000991527
-0.000916629
-0.000854708
-0.000806596
-0.000756879
-0.000707811
-0.000667171
-0.000630678
-0.000594538
-0.000560465
-0.000531135
-0.000503399
-0.000476008
-0.000449866
-0.000426298
-0.000402872
-0.000379573
-0.000356857
-0.000335342
-0.000313297
-0.000291424
-0.000269678
-0.000248412
-0.000226501
-0.000204862
-0.000183049
-0.000161453
-0.000139304
-0.00011747
-9.52989e-05
-7.33113e-05
-5.08726e-05
-2.87447e-05
-6.21614e-06
1.60866e-05
3.87838e-05
6.11893e-05
8.40028e-05
0.000106541
0.000129461
0.000152107
0.000175138
0.000197863
0.000220993
0.000243853
0.000267055
0.000289963
0.00031333
0.000336382
0.00035974
0.000382904
0.000406554
0.000429773
0.000453359
0.000476939
0.000500895
0.000524282
0.000548337
0.000572525
0.000596713
0.00062041
0.000645324
0.000670091
0.000694285
0.00071854
0.000744348
0.00076881
0.000792099
0.000816217
0.000870297
0.00088894
0.000918293
0.000948889
0.000952677
0.000954539
0.000981636
0.000962486
0.000881546
0.00084267
0.000782429
0.000574314
0.000365867
0.000206491
-7.25102e-05
-0.000455347
-0.000864421
-0.00082495
-0.000961021
-0.00130721
-0.00134003
-0.00164878
-0.00174739
-0.00152759
-0.00160908
-0.0016159
-0.0015168
-0.00129556
-0.00122322
-0.00119004
-0.00106885
-0.000976581
-0.00093386
-0.000874709
-0.000802084
-0.000751136
-0.000711312
-0.000663515
-0.000618108
-0.000584902
-0.000552906
-0.00051833
-0.000488507
-0.000464095
-0.000438268
-0.000412471
-0.000389794
-0.000368625
-0.000345986
-0.000324167
-0.00030353
-0.000282921
-0.000261383
-0.000240596
-0.000219846
-0.000198891
-0.000177399
-0.000156395
-0.000134987
-0.000113524
-9.16813e-05
-7.01426e-05
-4.81192e-05
-2.62014e-05
-3.93671e-06
1.80944e-05
4.05783e-05
6.28675e-05
8.55023e-05
0.000107912
0.000130743
0.000153337
0.00017627
0.000198984
0.000222116
0.000244969
0.000268163
0.000291191
0.000314628
0.000337718
0.000361228
0.000384678
0.000408438
0.00043181
0.000455872
0.000479923
0.000504006
0.000527913
0.000553025
0.000577799
0.000602232
0.000627409
0.000654246
0.000679482
0.00070453
0.000732421
0.000761054
0.000785322
0.000811821
0.000843815
0.000897211
0.000931978
0.000961192
0.000984551
0.00101435
0.00103904
0.00103563
0.00102385
0.00102386
0.000956623
0.000810417
0.000706761
0.000534254
0.000241134
0.000179166
-0.000325236
-0.00112008
-0.000504479
-0.000448845
-0.00102665
-0.000536681
-0.00097488
-0.00120065
-0.00101344
-0.0015798
-0.0016951
-0.00144821
-0.00136426
-0.0012558
-0.00116198
-0.00107913
-0.00100671
-0.000936882
-0.000867142
-0.000808547
-0.00075614
-0.000703923
-0.000656861
-0.000614966
-0.000575721
-0.000540123
-0.000508566
-0.000478318
-0.000450345
-0.000425254
-0.000401603
-0.00037804
-0.000356152
-0.000335286
-0.000314552
-0.000293655
-0.000273654
-0.000253537
-0.000233283
-0.00021279
-0.000192658
-0.000172028
-0.000151351
-0.000130368
-0.000109517
-8.81504e-05
-6.68526e-05
-4.52003e-05
-2.36443e-05
-1.64395e-06
2.02211e-05
4.24565e-05
6.45567e-05
8.70477e-05
0.000109378
0.000132066
0.000154574
0.000177468
0.000200187
0.000223234
0.000246099
0.00026939
0.000292468
0.000315856
0.000339153
0.000362914
0.00038637
0.000410234
0.000434208
0.00045856
0.000482533
0.000507305
0.000532353
0.000557441
0.000582427
0.00060897
0.000635468
0.000661606
0.000688839
0.00071819
0.000746162
0.000774253
0.000805519
0.000837549
0.000866076
0.000927936
0.000970851
0.00100399
0.00103155
0.00107651
0.00111317
0.00110956
0.0011199
0.00114909
0.0010657
0.000925
0.000875946
0.000726097
0.000394322
0.000126239
-0.000239041
-0.000587104
-0.000393929
-0.000276586
-0.000438376
-0.000471994
-0.000594932
-0.0004778
-0.000554776
-0.00106575
-0.00135134
-0.00136717
-0.00143326
-0.00128615
-0.00112737
-0.0010869
-0.00102461
-0.000929086
-0.000863931
-0.000817883
-0.000756977
-0.000695257
-0.000651787
-0.000612696
-0.000568045
-0.000528565
-0.000498814
-0.000469434
-0.00043893
-0.000412878
-0.000390762
-0.000367738
-0.000345062
-0.000324669
-0.000305214
-0.000284789
-0.000264898
-0.000245648
-0.000226289
-0.000206229
-0.000186519
-0.000166646
-0.000146525
-0.000125917
-0.000105486
-8.46361e-05
-6.36636e-05
-4.23083e-05
-2.10552e-05
6.36082e-07
2.23188e-05
4.43421e-05
6.62689e-05
8.85968e-05
0.000110833
0.000133392
0.000155842
0.00017867
0.000201357
0.000224366
0.000247281
0.000270571
0.000293684
0.000317168
0.000340621
0.000364433
0.000388064
0.000412233
0.000436454
0.000460964
0.000485436
0.000510795
0.000536182
0.000561769
0.000587866
0.000615323
0.000642415
0.000669884
0.000699197
0.000729997
0.000759288
0.000790209
0.000825342
0.000860083
0.000890997
0.000961589
0.000997966
0.00104562
0.00109596
0.00113047
0.00116655
0.00121972
0.00123905
0.00120403
0.00121194
0.00122464
0.000993334
0.000731447
0.000487619
-1.97826e-06
-0.000238854
-0.000347038
-0.000510195
-0.000551605
-0.000355863
-0.000470749
-0.000411753
-0.000361495
-0.00039949
-0.000572766
-0.000843378
-0.00120711
-0.00130176
-0.00122716
-0.00117911
-0.00109347
-0.00099556
-0.000932626
-0.000878182
-0.000808446
-0.000748451
-0.000701241
-0.000649809
-0.000599952
-0.000561551
-0.000525758
-0.000488582
-0.000457009
-0.000431041
-0.000404603
-0.000379082
-0.000357215
-0.000336797
-0.000315587
-0.000295507
-0.000276684
-0.000257726
-0.000238214
-0.000219324
-0.000200401
-0.000181089
-0.000161385
-0.00014188
-0.000121924
-0.000101721
-8.1177e-05
-6.06511e-05
-3.96477e-05
-1.85565e-05
2.86703e-06
2.42902e-05
4.61229e-05
6.79488e-05
9.00958e-05
0.000112201
0.000134673
0.000157092
0.000179809
0.000202459
0.00022549
0.000248429
0.000271648
0.000294859
0.000318496
0.000341969
0.000365796
0.0003898
0.000414205
0.000438373
0.000463248
0.000488531
0.000513964
0.000539382
0.000566314
0.00059353
0.000620498
0.000648663
0.000679291
0.000709032
0.000738947
0.000772897
0.000808777
0.000841513
0.000877897
0.000921294
0.000988993
0.00103257
0.00108505
0.00114424
0.0011912
0.0012334
0.00129994
0.0013491
0.00133976
0.00135363
0.00137221
0.00127414
0.000962333
0.000232652
-0.000327002
-0.000353893
-0.000442635
-0.000486717
-0.000437428
-0.000391598
-0.000465738
-0.000383092
-0.000351608
-0.000372129
-0.000395607
-0.000425109
-0.000742759
-0.00114701
-0.00126131
-0.00117259
-0.00104484
-0.000989001
-0.000948654
-0.000874734
-0.000798982
-0.00074755
-0.000700523
-0.000645357
-0.000594678
-0.000555443
-0.000519019
-0.00048183
-0.000449144
-0.000422164
-0.000396332
-0.000371078
-0.000348546
-0.000328239
-0.000307919
-0.000288055
-0.000269245
-0.000250895
-0.00023209
-0.000213448
-0.000194889
-0.00017617
-0.000156946
-0.00013771
-0.000118164
-9.83759e-05
-7.81492e-05
-5.78604e-05
-3.71732e-05
-1.63301e-05
4.88051e-06
2.61366e-05
4.77684e-05
6.94585e-05
9.14692e-05
0.000113491
0.000135854
0.000158207
0.000180864
0.000203516
0.000226492
0.000249429
0.000272697
0.000295977
0.000319591
0.000343186
0.00036721
0.000391299
0.000415767
0.000440341
0.000465536
0.000490877
0.00051673
0.000543015
0.000570216
0.000597671
0.000626
0.000655412
0.000686115
0.000717218
0.000749998
0.000785066
0.000821705
0.000858614
0.000898997
0.000943968
0.00101057
0.00107111
0.0011217
0.00117254
0.00124713
0.00131861
0.0013633
0.00142031
0.00150238
0.00150909
0.0014545
0.0015804
0.0011778
3.37546e-05
-0.000484131
-0.000442384
-0.000400547
-0.000371837
-0.000415562
-0.000475539
-0.00037207
-0.000361185
-0.000419958
-0.000372918
-0.000264032
-0.000261358
-0.000473569
-0.00095346
-0.0011826
-0.00110572
-0.00106092
-0.0010095
-0.000921376
-0.000854317
-0.000813137
-0.000753215
-0.000684699
-0.00063843
-0.00059932
-0.000550708
-0.00050754
-0.00047698
-0.00044638
-0.000413841
-0.000387468
-0.000365709
-0.000342637
-0.000320263
-0.000301092
-0.000282682
-0.000263284
-0.000244702
-0.000227004
-0.000208894
-0.000190188
-0.000171836
-0.000153314
-0.000134297
-0.00011488
-9.54877e-05
-7.56461e-05
-5.54885e-05
-3.50013e-05
-1.44284e-05
6.57714e-06
2.77411e-05
4.92061e-05
7.07445e-05
9.26496e-05
0.000114623
0.000136873
0.000159158
0.000181789
0.000204438
0.00022734
0.000250294
0.000273626
0.000296921
0.000320504
0.000344271
0.000368444
0.000392512
0.000417104
0.00044213
0.000467443
0.000492743
0.000519232
0.000546273
0.000573276
0.000601095
0.00063119
0.000661187
0.000691203
0.000724539
0.000760622
0.000794647
0.000831264
0.000875435
0.00091936
0.000959481
0.00103207
0.00108891
0.00115102
0.00121455
0.00128598
0.00136735
0.0014366
0.00149994
0.00159895
0.00165741
0.00164591
0.00170954
0.000702451
-0.000307721
-0.000335248
-0.000403083
-0.000412488
-0.000405215
-0.00041526
-0.00041112
-0.000368149
-0.000387844
-0.000355986
-0.00032418
-0.000289032
-0.000291878
-0.000302941
-0.000688678
-0.00110644
-0.00108502
-0.00106181
-0.000985983
-0.000914521
-0.000862707
-0.000805197
-0.00074313
-0.000688149
-0.000638065
-0.00059022
-0.000546661
-0.000507215
-0.000471219
-0.000439118
-0.000410254
-0.000383484
-0.000359135
-0.000337011
-0.000316168
-0.000296139
-0.000277223
-0.000258913
-0.000240789
-0.000222736
-0.000204911
-0.000186895
-0.000168678
-0.000150194
-0.000131564
-0.000112511
-9.32074e-05
-7.35405e-05
-5.36579e-05
-3.33621e-05
-1.28742e-05
7.96743e-06
2.89734e-05
5.03291e-05
7.18073e-05
9.36015e-05
0.000115491
0.000137686
0.000159957
0.000182515
0.000205127
0.000228049
0.000251028
0.000274294
0.000297636
0.000321345
0.000345118
0.000369245
0.000393574
0.000418365
0.000443275
0.000468768
0.000494708
0.000521217
0.000548081
0.000576055
0.000604763
0.000634233
0.000664805
0.000697298
0.000730729
0.000765683
0.000803279
0.000843443
0.0008851
0.00093045
0.000979807
0.00104743
0.00109928
0.0011709
0.00125064
0.00131432
0.00138675
0.001493
0.0015952
0.00165975
0.00172462
0.00185904
0.001569
0.000293918
-0.000409527
-0.000289727
-0.000371058
-0.000430345
-0.00042029
-0.000374777
-0.000360656
-0.000409362
-0.000393214
-0.000309745
-0.000309705
-0.000322977
-0.000259135
-0.000218562
-0.000500978
-0.000979897
-0.00110628
-0.00101842
-0.000954968
-0.00092967
-0.000871489
-0.000788617
-0.000734642
-0.000695369
-0.000637976
-0.000581188
-0.000543539
-0.000508393
-0.000467445
-0.000433296
-0.000407757
-0.000381386
-0.000354704
-0.000332839
-0.000313474
-0.000293052
-0.000273455
-0.000255806
-0.000238226
-0.000219924
-0.000202128
-0.000184612
-0.000166582
-0.000148073
-0.000129649
-0.000110887
-9.16672e-05
-7.20822e-05
-5.23799e-05
-3.22389e-05
-1.18069e-05
8.93771e-06
2.98299e-05
5.11039e-05
7.2545e-05
9.42644e-05
0.000116093
0.000138253
0.00016051
0.000183017
0.000205613
0.000228543
0.000251527
0.00027476
0.000298148
0.000321915
0.000345687
0.000369828
0.00039432
0.000419189
0.000444072
0.000469749
0.000496023
0.000522515
0.000549426
0.000578031
0.000607135
0.000636331
0.000667528
0.00070143
0.000734759
0.000769371
0.000809515
0.000851677
0.000891525
0.000938257
0.000994672
0.00105227
0.00111816
0.00118056
0.00124897
0.00133605
0.0014256
0.00150874
0.00160324
0.00170346
0.00184213
0.0019997
0.00143566
0.000338266
-0.000373822
-0.000428316
-0.000381981
-0.000359723
-0.000387663
-0.000407333
-0.000398756
-0.000365952
-0.000339492
-0.000357735
-0.00032129
-0.000281614
-0.000248926
-0.000198283
-0.000444302
-0.000843881
-0.00105141
-0.00102464
-0.000983968
-0.000910644
-0.000847606
-0.000803239
-0.000744964
-0.000680276
-0.000632001
-0.000590173
-0.000542661
-0.000499942
-0.000467222
-0.000435794
-0.000404072
-0.000377437
-0.000354783
-0.000332032
-0.000310306
-0.000291138
-0.00027283
-0.000254148
-0.000236135
-0.000218772
-0.000201169
-0.000183164
-0.000165304
-0.000147242
-0.000128751
-0.000109879
-9.08795e-05
-7.14578e-05
-5.16979e-05
-3.15919e-05
-1.12982e-05
9.39442e-06
3.0305e-05
5.15227e-05
7.28913e-05
9.45949e-05
0.000116434
0.000138545
0.00016076
0.000183285
0.0002059
0.000228768
0.000251743
0.000275059
0.000298437
0.000322106
0.00034599
0.00037027
0.000394606
0.000419438
0.000444712
0.000470389
0.000496265
0.000523187
0.000550761
0.000578686
0.000607535
0.000638365
0.000669664
0.000701676
0.000736632
0.000774226
0.000811497
0.000851921
0.000898645
0.000946566
0.00099439
0.00105227
0.00111816
0.00118056
0.00124897
0.00133605
0.0014256
0.00150874
0.00160324
0.00170346
0.00184213
0.0019997
0.00143566
0.000338266
-0.000373822
-0.000428316
-0.000381981
-0.000359723
-0.000387663
-0.000407333
-0.000398756
-0.000365952
-0.000339492
-0.000357735
-0.00032129
-0.000281614
-0.000248926
-0.000198283
-0.000444302
-0.000843881
-0.00105141
-0.00102464
-0.000983968
-0.000910644
-0.000847606
-0.000803239
-0.000744964
-0.000680276
-0.000632001
-0.000590173
-0.000542661
-0.000499942
-0.000467222
-0.000435794
-0.000404072
-0.000377437
-0.000354783
-0.000332032
-0.000310306
-0.000291138
-0.00027283
-0.000254148
-0.000236135
-0.000218772
-0.000201169
-0.000183164
-0.000165304
-0.000147242
-0.000128751
-0.000109879
-9.08795e-05
-7.14578e-05
-5.16979e-05
-3.15919e-05
-1.12982e-05
9.39442e-06
3.0305e-05
5.15227e-05
7.28913e-05
9.45949e-05
0.000116434
0.000138545
0.00016076
0.000183285
0.0002059
0.000228768
0.000251743
0.000275059
0.000298437
0.000322106
0.00034599
0.00037027
0.000394606
0.000419438
0.000444712
0.000470389
0.000496265
0.000523187
0.000550761
0.000578686
0.000607535
0.000638365
0.000669664
0.000701676
0.000736632
0.000774226
0.000811497
0.000851921
0.000898645
0.000946566
0.00099439
0.00104743
0.00109928
0.0011709
0.00125064
0.00131432
0.00138675
0.001493
0.0015952
0.00165975
0.00172462
0.00185904
0.001569
0.000293918
-0.000409527
-0.000289727
-0.000371058
-0.000430345
-0.00042029
-0.000374777
-0.000360656
-0.000409362
-0.000393214
-0.000309745
-0.000309705
-0.000322977
-0.000259135
-0.000218562
-0.000500978
-0.000979897
-0.00110628
-0.00101842
-0.000954968
-0.00092967
-0.000871489
-0.000788617
-0.000734642
-0.000695369
-0.000637976
-0.000581188
-0.000543539
-0.000508393
-0.000467445
-0.000433296
-0.000407757
-0.000381386
-0.000354704
-0.000332839
-0.000313474
-0.000293052
-0.000273455
-0.000255806
-0.000238226
-0.000219924
-0.000202128
-0.000184612
-0.000166582
-0.000148073
-0.000129649
-0.000110887
-9.16672e-05
-7.20822e-05
-5.23799e-05
-3.22389e-05
-1.18069e-05
8.93771e-06
2.98299e-05
5.11039e-05
7.2545e-05
9.42644e-05
0.000116093
0.000138253
0.00016051
0.000183017
0.000205613
0.000228543
0.000251527
0.00027476
0.000298148
0.000321915
0.000345687
0.000369828
0.00039432
0.000419189
0.000444072
0.000469749
0.000496023
0.000522515
0.000549426