# vtk DataFile Version 3.0
fluid_state
ASCII
DATASET RECTILINEAR_GRID
DIMENSIONS 100 40 1
X_COORDINATES 100 float
0.5 1.5 2.5 3.5 4.5 5.5 6.5 7.5 8.5 9.5 10.5 11.5 12.5 13.5 14.5 15.5 16.5 17.5 18.5 19.5 20.5 21.5 22.5 23.5 24.5 25.5 26.5 27.5 28.5 29.5 30.5 31.5 32.5 33.5 34.5 35.5 36.5 37.5 38.5 39.5 40.5 41.5 42.5 43.5 44.5 45.5 46.5 47.5 48.5 49.5 50.5 51.5 52.5 53.5 54.5 55.5 56.5 57.5 58.5 59.5 60.5 61.5 62.5 63.5 64.5 65.5 66.5 67.5 68.5 69.5 70.5 71.5 72.5 73.5 74.5 75.5 76.5 77.5 78.5 79.5 80.5 81.5 82.5 83.5 84.5 85.5 86.5 87.5 88.5 89.5 90.5 91.5 92.5 93.5 94.5 95.5 96.5 97.5 98.5 99.5 
Y_COORDINATES 40 float
0.5 1.5 2.5 3.5 4.5 5.5 6.5 7.5 8.5 9.5 10.5 11.5 12.5 13.5 14.5 15.5 16.5 17.5 18.5 19.5 20.5 21.5 22.5 23.5 24.5 25.5 26.5 27.5 28.5 29.5 30.5 31.5 32.5 33.5 34.5 35.5 36.5 37.5 38.5 39.5 
Z_COORDINATES 1 float
0
POINT_DATA 4000
SCALARS density_difference float 1
LOOKUP_TABLE default
0.000758171
0.000765579
0.000771449
0.000775124
0.000773558
0.000764299
0.000747111
0.00072803
0.00069944
0.000649693
0.000597373
0.000540785
0.000454484
0.000360143
0.000266471
0.000148918
2.58745e-05
-9.34616e-05
-0.000224931
-0.000346943
-0.00045549
-0.000571074
-0.000664103
-0.000733742
-0.000806738
-0.000858551
-0.000885877
-0.000914794
-0.000929683
-0.000925899
-0.000922091
-0.000913871
-0.000894474
-0.000870457
-0.000847688
-0.000823238
-0.000792626
-0.000760939
-0.000732727
-0.000703024
-0.000669797
-0.000638316
-0.000609256
-0.000578627
-0.000547043
-0.000517582
-0.000489126
-0.000459737
-0.000430695
-0.00040318
-0.000375918
-0.000348364
-0.000321515
-0.000295523
-0.00026953
-0.000243632
-0.000218339
-0.000193434
-0.000168509
-0.000143816
-0.000119491
-9.53117e-05
-7.11535e-05
-4.72012e-05
-2.34168e-05
3.08288e-07
2.39982e-05
4.75668e-05
7.10732e-05
9.4536e-05
0.000117994
0.000141398
0.000164754
0.00018808
0.00021146
0.000234779
0.000258011
0.00028128
0.000304636
0.000327805
0.000350877
0.000374132
0.000397355
0.000420152
0.000443023
0.000466199
0.000488882
0.000510969
0.000533604
0.000556261
0.00057754
0.000598578
0.000620669
0.000641421
0.000660008
0.000679553
0.000699389
0.000715392
0.000729748
0.000745493
0.000748984
0.000756358
0.000761536
0.000763268
0.000759374
0.000745582
0.000729493
0.000712341
0.00067239
0.000620019
0.000579358
0.000513879
0.000416952
0.000333887
0.000245353
0.000121413
-3.142e-06
-0.000110418
-0.00023167
-0.000360741
-0.000463269
-0.00056223
-0.000659086
-0.000723792
-0.000785177
-0.000845389
-0.000867538
-0.000883078
-0.000909385
-0.000910606
-0.000894985
-0.000887446
-0.000878252
-0.000855042
-0.00082636
-0.000804289
-0.00078124
-0.000749396
-0.000717598
-0.000691276
-0.000662617
-0.000629957
-0.000599626
-0.000572026
-0.00054241
-0.000511883
-0.000483498
-0.000456127
-0.000427626
-0.000399524
-0.000372789
-0.000346329
-0.000319443
-0.000293277
-0.000267798
-0.000242376
-0.000216915
-0.000192074
-0.000167483
-0.000142942
-0.000118498
-9.44629e-05
-7.04566e-05
-4.65385e-05
-2.27128e-05
8.81939e-07
2.45389e-05
4.8077e-05
7.15769e-05
9.49638e-05
0.000118432
0.000141759
0.000165111
0.000188419
0.000211773
0.000234964
0.00025826
0.000281522
0.000304727
0.000327784
0.000351041
0.000374155
0.000397057
0.000419928
0.000443042
0.000465682
0.000488005
0.000510564
0.00053313
0.000554626
0.000575976
0.00059781
0.000618751
0.000637978
0.000657665
0.000677362
0.000694423
0.00070967
0.000725566
0.000739311
0.000743032
0.000753084
0.000756423
0.000753115
0.000748372
0.000740071
0.000722263
0.000690584
0.000655266
0.000619257
0.000556454
0.00047636
0.00041069
0.000319523
0.000198706
9.68647e-05
-1.49388e-05
-0.000148527
-0.000262035
-0.000375094
-0.000492582
-0.000577444
-0.000661842
-0.000745288
-0.000789119
-0.000827397
-0.000870822
-0.000884609
-0.000886407
-0.000893365
-0.00088993
-0.000873875
-0.00085514
-0.000839584
-0.000818426
-0.000789329
-0.000762606
-0.000739055
-0.000710007
-0.000678509
-0.000650675
-0.000623492
-0.00059299
-0.000563097
-0.00053554
-0.000507614
-0.000478398
-0.00045057
-0.00042377
-0.000396583
-0.000369236
-0.000343083
-0.000317202
-0.000291216
-0.000265478
-0.00024051
-0.000215502
-0.000190629
-0.000166011
-0.000141823
-0.00011752
-9.34523e-05
-6.9509e-05
-4.58063e-05
-2.19919e-05
1.59536e-06
2.51784e-05
4.85961e-05
7.21283e-05
9.54761e-05
0.000118876
0.000142139
0.000165542
0.000188774
0.000212056
0.000235244
0.000258589
0.000281697
0.000304851
0.000327993
0.00035122
0.000374057
0.000397032
0.000420069
0.000442888
0.000465178
0.000487893
0.000510493
0.000532244
0.000553639
0.000575837
0.000596981
0.000616548
0.000636631
0.000657205
0.000674581
0.000690478
0.000708029
0.000723468
0.000733261
0.00074388
0.000749565
0.000752429
0.000752674
0.00074623
0.000735474
0.000717247
0.000684466
0.000652092
0.000611354
0.000538391
0.00046606
0.000398732
0.000289772
0.000169812
6.66294e-05
-5.15947e-05
-0.000192073
-0.000316084
-0.000418874
-0.000534778
-0.000632743
-0.000701405
-0.000775944
-0.000825821
-0.00084582
-0.000881003
-0.000901848
-0.000889881
-0.000885957
-0.000885979
-0.000870837
-0.000845657
-0.000824659
-0.000806979
-0.000781322
-0.000750245
-0.000724621
-0.000699974
-0.000670206
-0.000639745
-0.000613065
-0.000585686
-0.000556153
-0.000527518
-0.000500895
-0.000473371
-0.000445395
-0.00041845
-0.000392461
-0.000365825
-0.000339499
-0.000313886
-0.000288696
-0.000263157
-0.000238153
-0.000213486
-0.000189033
-0.00016443
-0.00014032
-0.00011627
-9.23859e-05
-6.84329e-05
-4.48453e-05
-2.11654e-05
2.33945e-06
2.59123e-05
4.92395e-05
7.27177e-05
9.59983e-05
0.000119386
0.000142609
0.000165973
0.000189121
0.000212438
0.000235613
0.000258861
0.000281906
0.000305188
0.000328252
0.000351284
0.000374204
0.000397372
0.000420083
0.000442713
0.000465411
0.000488134
0.000510003
0.000531964
0.000554098
0.000575539
0.000595775
0.000616601
0.000637089
0.000655535
0.000672979
0.000691349
0.000707305
0.000719923
0.000732437
0.000746082
0.000749664
0.000755306
0.00075824
0.000750007
0.000734442
0.000717571
0.000694883
0.000653617
0.00059186
0.000538875
0.000475848
0.000358365
0.000250835
0.000165229
1.58301e-05
-0.00013265
-0.000241933
-0.000380783
-0.000512898
-0.000606271
-0.000715003
-0.000787873
-0.000823869
-0.000884063
-0.000918478
-0.000907472
-0.000914621
-0.000923177
-0.000907274
-0.000881651
-0.000865132
-0.000851435
-0.000823096
-0.000791085
-0.000770062
-0.000746463
-0.000714179
-0.00068469
-0.000660701
-0.000632762
-0.000602159
-0.000574738
-0.00054905
-0.000520689
-0.00049251
-0.000466301
-0.000440309
-0.000413052
-0.000386822
-0.000361438
-0.000335945
-0.000310067
-0.000285169
-0.000260441
-0.000235713
-0.000210963
-0.000186894
-0.000162704
-0.000138669
-0.00011466
-9.10771e-05
-6.72897e-05
-4.37358e-05
-2.01396e-05
3.17665e-06
2.67068e-05
4.99945e-05
7.33908e-05
9.65736e-05
0.000119974
0.000143136
0.000166436
0.000189563
0.000212907
0.000235984
0.000259208
0.00028231
0.000305579
0.000328498
0.000351617
0.000374651
0.000397668
0.000420246
0.000443187
0.000465936
0.000488267
0.000510238
0.000532811
0.000554618
0.000575475
0.000596505
0.000618044
0.000637342
0.000655566
0.000674998
0.000693333
0.000707107
0.000721086
0.000736409
0.000749028
0.000760584
0.000765455
0.000761262
0.000758914
0.000750034
0.000726273
0.000699566
0.000660382
0.000600141
0.000541636
0.000456943
0.000339041
0.000236242
0.000110885
-4.97675e-05
-0.000198546
-0.000336544
-0.000479548
-0.000630349
-0.000730696
-0.000817147
-0.000902531
-0.000938919
-0.000960109
-0.000992824
-0.00098048
-0.00095966
-0.000955257
-0.000934391
-0.000903881
-0.000874182
-0.000848773
-0.000824239
-0.000791855
-0.000760286
-0.00073441
-0.000707274
-0.000676183
-0.000647581
-0.000621272
-0.000593702
-0.000564877
-0.000538146
-0.000511996
-0.000485137
-0.000458164
-0.000432674
-0.000407037
-0.000381219
-0.000355672
-0.000331041
-0.000306043
-0.000281248
-0.000256705
-0.000232673
-0.000208303
-0.000184309
-0.000160392
-0.000136779
-0.000112913
-8.94321e-05
-6.58625e-05
-4.25272e-05
-1.899e-05
4.22584e-06
2.76274e-05
5.07986e-05
7.41671e-05
9.72857e-05
0.000120614
0.000143699
0.000167013
0.000190114
0.000213387
0.000236424
0.000259741
0.000282802
0.000305965
0.000328962
0.00035225
0.000375112
0.000398057
0.000420982
0.000444021
0.000466355
0.000488953
0.000511611
0.000533812
0.000555127
0.000577185
0.000598859
0.000619026
0.000638714
0.00065959
0.000678258
0.000694385
0.000711559
0.000728691
0.000739694
0.000761102
0.000773524
0.000776501
0.000775439
0.000776549
0.000767867
0.000744045
0.000711046
0.000673599
0.000626618
0.000538754
0.000425251
0.000349884
0.000219655
9.73659e-06
-0.00011568
-0.000255463
-0.000477396
-0.000629391
-0.000752568
-0.000895898
-0.000964013
-0.00102912
-0.00110177
-0.00107822
-0.00105333
-0.00107638
-0.00104951
-0.000993815
-0.000956187
-0.000936618
-0.000903645
-0.000852521
-0.000819196
-0.000796569
-0.000760722
-0.000722385
-0.000695967
-0.000669733
-0.000637441
-0.000607406
-0.000582593
-0.000555656
-0.00052704
-0.000500765
-0.000476264
-0.000449943
-0.000423852
-0.000399154
-0.000374844
-0.000349499
-0.000324948
-0.000300922
-0.000276929
-0.000252479
-0.000228784
-0.000205094
-0.000181474
-0.000157659
-0.000134393
-0.00011091
-8.75978e-05
-6.41436e-05
-4.10654e-05
-1.77067e-05
5.42159e-06
2.87171e-05
5.17376e-05
7.50449e-05
9.80981e-05
0.00012135
0.000144381
0.000167688
0.000190719
0.000213972
0.000237041
0.000260348
0.000283339
0.000306593
0.00032968
0.000352897
0.000375761
0.00039898
0.000421961
0.000444855
0.000467453
0.000490526
0.000513041
0.000535183
0.000557324
0.000579889
0.000601084
0.000621805
0.000643131
0.000664033
0.000682119
0.000700427
0.000719722
0.00073564
0.000747248
0.000778623
0.000784065
0.000793929
0.000805535
0.000797726
0.000781938
0.000775703
0.000746528
0.000690197
0.000636714
0.000555466
0.000443385
0.000324418
0.000153869
-1.57822e-05
-0.000187843
-0.000405774
-0.000597624
-0.000782036
-0.000923615
-0.00107782
-0.00117324
-0.00118979
-0.00121537
-0.00123678
-0.00118779
-0.00115166
-0.00111046
-0.00106006
-0.00101605
-0.000958877
-0.000914956
-0.000877905
-0.000831339
-0.000788904
-0.000756943
-0.000723269
-0.000687101
-0.000655447
-0.000627835
-0.000598239
-0.00056888
-0.000542323
-0.000516857
-0.000489972
-0.000464269
-0.000439828
-0.00041535
-0.000390208
-0.000366266
-0.000342537
-0.000318659
-0.000294602
-0.000271384
-0.000247906
-0.000224486
-0.00020102
-0.000178053
-0.000154719
-0.000131612
-0.000108402
-8.54998e-05
-6.22641e-05
-3.93089e-05
-1.61615e-05
6.74363e-06
2.99421e-05
5.28762e-05
7.60515e-05
9.89899e-05
0.000122216
0.000145204
0.000168427
0.000191416
0.000214719
0.000237767
0.000261007
0.000284063
0.000307448
0.00033047
0.000353675
0.000376818
0.000400181
0.000422985
0.000446132
0.000469321
0.000492321
0.00051465
0.000537776
0.000560676
0.000582585
0.000604249
0.000627267
0.000648695
0.000668321
0.000689283
0.000711069
0.000727897
0.000743656
0.000763309
0.000794278
0.00080725
0.000822005
0.000828866
0.000825423
0.000821023
0.000809589
0.000778329
0.000729951
0.000658426
0.000578191
0.000481826
0.000283703
9.0448e-05
-6.72023e-06
-0.000287957
-0.000575893
-0.00069985
-0.000940359
-0.0011518
-0.00124291
-0.00137106
-0.00141169
-0.0013293
-0.00135715
-0.00134966
-0.00123303
-0.00116315
-0.00112266
-0.00107427
-0.000995612
-0.000928173
-0.000892585
-0.000847964
-0.000791835
-0.000751353
-0.00071976
-0.000682149
-0.000644628
-0.000615386
-0.000587322
-0.00055697
-0.000528592
-0.000503951
-0.00047848
-0.000452482
-0.000428032
-0.000405003
-0.000380911
-0.000357074
-0.000334021
-0.000311377
-0.000287961
-0.000265047
-0.000242323
-0.000219701
-0.000196609
-0.000173995
-0.000151234
-0.000128566
-0.000105593
-8.29941e-05
-6.01092e-05
-3.73777e-05
-1.43955e-05
8.30381e-06
3.13243e-05
5.41401e-05
7.72048e-05
0.000100044
0.000123197
0.000146111
0.000169291
0.000192279
0.000215549
0.000238556
0.000261865
0.000284991
0.000308332
0.000331411
0.000354853
0.000378057
0.000401379
0.000424514
0.000448062
0.000471188
0.000494363
0.000517545
0.00054105
0.000563773
0.000586638
0.000609772
0.000632751
0.000654428
0.000676673
0.000699218
0.00072024
0.000739416
0.000760045
0.000779592
0.000815207
0.000840071
0.000851289
0.000852432
0.000868886
0.000875348
0.000841336
0.000813444
0.000796941
0.000712966
0.000593345
0.000488029
0.000320591
0.000109293
-0.000143626
-0.000395096
-0.000546459
-0.000839468
-0.00113398
-0.00135792
-0.00142734
-0.00149985
-0.00158957
-0.0015703
-0.00144481
-0.00138394
-0.0013211
-0.00127707
-0.00118063
-0.00107686
-0.00103309
-0.000975441
-0.000897282
-0.000844503
-0.000805686
-0.000756877
-0.00070867
-0.000673601
-0.000640654
-0.000604278
-0.000571904
-0.000545306
-0.000517459
-0.000489335
-0.000464423
-0.000441203
-0.00041646
-0.000392626
-0.000370292
-0.000348007
-0.000324829
-0.000302625
-0.000280693
-0.000258529
-0.000235965
-0.00021406
-0.000191884
-0.000169637
-0.000147169
-0.00012508
-0.000102592
-8.02019e-05
-5.75966e-05
-3.52269e-05
-1.24816e-05
1.00864e-05
3.29045e-05
5.55273e-05
7.84899e-05
0.000101256
0.000124284
0.00014712
0.000170291
0.000193251
0.000216454
0.000239493
0.000262878
0.000285989
0.000309338
0.000332614
0.000356189
0.000379365
0.000402896
0.000426475
0.00045011
0.000473268
0.000497159
0.000521019
0.000544393
0.000567613
0.000592166
0.000615873
0.00063847
0.000662229
0.00068742
0.000709428
0.000730711
0.000755763
0.000779371
0.000795526
0.000844963
0.000865161
0.000882918
0.000901706
0.000913633
0.000910602
0.000904753
0.000889736
0.000838556
0.00076826
0.000672031
0.000507619
0.000362455
0.000167834
-0.000264571
-0.000455515
-0.000519027
-0.000925632
-0.00115564
-0.00142744
-0.00171925
-0.00174807
-0.00162896
-0.00167757
-0.00154489
-0.00144511
-0.00142163
-0.00132296
-0.00121952
-0.00111746
-0.00105029
-0.000990819
-0.000916035
-0.000854176
-0.000806221
-0.000756569
-0.000707667
-0.000667111
-0.000630806
-0.000594763
-0.000560892
-0.000531679
-0.000504169
-0.000476908
-0.000451004
-0.000427582
-0.000404407
-0.000381258
-0.000358795
-0.000337432
-0.000315639
-0.00029391
-0.000272406
-0.000251273
-0.000229589
-0.000208064
-0.000186458
-0.000164953
-0.000142987
-0.000121217
-9.9199e-05
-7.72452e-05
-5.4928e-05
-3.28007e-05
-1.03597e-05
1.19777e-05
3.46232e-05
5.70999e-05
7.98986e-05
0.000102545
0.000125487
0.000148279
0.00017137
0.000194277
0.000217502
0.00024058
0.000263912
0.000287072
0.0003106
0.000333936
0.000357486
0.00038096
0.00040483
0.000428384
0.000452212
0.00047615
0.000500367
0.000524127
0.000548458
0.000573034
0.000597508
0.000621599
0.000646807
0.000671974
0.000696459
0.00072111
0.000747212
0.000772064
0.000795627
0.000820123
0.000874563
0.000893551
0.000923165
0.000954114
0.000958078
0.000960191
0.000987491
0.0009685
0.000887436
0.000848644
0.000788268
0.000579633
0.000370593
0.00021084
-6.91488e-05
-0.000452953
-0.000863025
-0.000823584
-0.000960278
-0.00130731
-0.00134014
-0.00164908
-0.00174751
-0.00152717
-0.00160863
-0.00161538
-0.00151616
-0.00129474
-0.00122242
-0.00118925
-0.00106812
-0.000975897
-0.000933303
-0.000874225
-0.00080173
-0.000750861
-0.000711196
-0.000663484
-0.000618239
-0.000585138
-0.000553331
-0.000518869
-0.00048925
-0.000464976
-0.000439374
-0.000413723
-0.000391283
-0.000370274
-0.000347879
-0.000326217
-0.000305825
-0.000285369
-0.000264067
-0.000243421
-0.000222893
-0.000202061
-0.000180772
-0.000159868
-0.000138638
-0.000117247
-9.55542e-05
-7.40572e-05
-5.21519e-05
-3.02418e-05
-8.06092e-06
1.3998e-05
3.64339e-05
5.8788e-05
8.14118e-05
0.000103924
0.000126781
0.000149516
0.000172511
0.000195403
0.000218635
0.000241701
0.000265028
0.000288304
0.000311907
0.000335277
0.000358983
0.000382741
0.000406723
0.000430429
0.000454736
0.000479143
0.000503491
0.000527771
0.000553164
0.000578325
0.00060305
0.000628622
0.00065576
0.000681396
0.000706742
0.000735035
0.000763972
0.000788629
0.000815417
0.000847803
0.000901558
0.00093671
0.000966199
0.000989884
0.00101992
0.00104494
0.00104165
0.00103003
0.00103015
0.000962927
0.000816274
0.000712356
0.000539426
0.000245442
0.000182895
-0.000322992
-0.00112005
-0.000503488
-0.000447978
-0.0010272
-0.000536356
-0.000974969
-0.00120088
-0.00101306
-0.00157961
-0.00169473
-0.00144749
-0.00136347
-0.00125507
-0.00116126
-0.00107843
-0.0010061
-0.000936395
-0.000866725
-0.000808255
-0.000755939
-0.000703856
-0.000656884
-0.000615135
-0.00057599
-0.000540559
-0.00050912
-0.000479057
-0.00045122
-0.000426338
-0.000402838
-0.000379498
-0.000357772
-0.000337139
-0.00031657
-0.000295907
-0.000276067
-0.000256179
-0.000236074
-0.000215797
-0.000195797
-0.000175364
-0.000154796
-0.000133986
-0.000113217
-9.19946e-05
-7.07467e-05
-4.92078e-05
-2.76678e-05
-5.74676e-06
1.61385e-05
3.83304e-05
6.04884e-05
8.29728e-05
0.000105399
0.000128117
0.000150759
0.000173721
0.000196612
0.000219762
0.000242835
0.000266264
0.000289584
0.000313143
0.000336715
0.000360677
0.000384436
0.000408528
0.000432831
0.000457435
0.000481759
0.000506802
0.000532221
0.000557596
0.000582965
0.000609808
0.000636702
0.000663145
0.000690777
0.000720442
0.000748817
0.000777213
0.000808881
0.000841222
0.000870134
0.000932378
0.000975693
0.00100912
0.00103702
0.00108227
0.00111926
0.00111579
0.00112636
0.00115572
0.00107222
0.000931181
0.000882053
0.000731555
0.000398726
0.000129507
-0.000237439
-0.000586831
-0.000393584
-0.000276161
-0.000438416
-0.000472081
-0.000595092
-0.000477736
-0.000554557
-0.00106562
-0.00135095
-0.00136649
-0.00143259
-0.0012854
-0.00112663
-0.00108625
-0.00102404
-0.000928607
-0.00086355
-0.000817636
-0.000756819
-0.000695211
-0.00065184
-0.00061289
-0.000568337
-0.000529002
-0.000499374
-0.000470169
-0.000439799
-0.000413939
-0.00039198
-0.000369168
-0.000346657
-0.000326487
-0.000307203
-0.000287004
-0.00026728
-0.000248253
-0.000229052
-0.000209201
-0.000189631
-0.00016995
-0.000149946
-0.000129506
-0.000109165
-8.84549e-05
-6.75405e-05
-4.62936e-05
-2.50645e-05
-3.44772e-06
1.82476e-05
4.02325e-05
6.22096e-05
8.45359e-05
0.000106861
0.000129455
0.000152033
0.000174934
0.000197786
0.000220904
0.000244021
0.000267455
0.000290804
0.000314464
0.000338187
0.000362205
0.000386135
0.000410537
0.000435083
0.000459851
0.00048467
0.000510307
0.000536061
0.000561941
0.00058842
0.000616185
0.00064367
0.000671453
0.000701167
0.000732289
0.000761982
0.000793223
0.000828763
0.000863825
0.000895129
0.000966132
0.00100289
0.00105087
0.0011016
0.00113639
0.0011728
0.00122625
0.00124585
0.00121084
0.00121885
0.0012316
0.000999701
0.000736883
0.000491933
1.48934e-07
-0.000237983
-0.000346585
-0.000510141
-0.000551793
-0.000355579
-0.000470687
-0.00041173
-0.000361301
-0.000399299
-0.000572693
-0.000843179
-0.00120659
-0.0013011
-0.00122639
-0.0011784
-0.00109287
-0.000995033
-0.000932209
-0.000877874
-0.000808246
-0.000748349
-0.000701262
-0.000649919
-0.000600177
-0.000561883
-0.000526229
-0.000489165
-0.000457749
-0.000431921
-0.000405662
-0.000380295
-0.000358628
-0.000338379
-0.000317381
-0.000297475
-0.000278871
-0.000260086
-0.000240788
-0.000222062
-0.000203342
-0.000184177
-0.000164659
-0.000145279
-0.000125486
-0.00010538
-8.49712e-05
-6.45112e-05
-4.36116e-05
-2.25516e-05
-1.19773e-06
2.02307e-05
4.20296e-05
6.3899e-05
8.60492e-05
0.000108236
0.000130749
0.000153289
0.000176084
0.000198892
0.000222038
0.000245173
0.000268541
0.000291983
0.000315801
0.000339537
0.000363576
0.000387874
0.000412518
0.000437006
0.000462143
0.00048777
0.000513487
0.000539268
0.0005665
0.000594097
0.000621378
0.000649932
0.000680887
0.000711027
0.000741269
0.000775625
0.000811843
0.000844982
0.000881694
0.000925505
0.000993613
0.00103759
0.00109042
0.00115002
0.00119729
0.00123984
0.00130671
0.00135618
0.00134693
0.00136095
0.00137955
0.00128113
0.000968193
0.000235772
-0.000326169
-0.000353362
-0.000442492
-0.000486682
-0.000437248
-0.00039134
-0.00046565
-0.000382878
-0.000351395
-0.000371987
-0.000395469
-0.000424865
-0.000742221
-0.00114629
-0.00126061
-0.00117191
-0.00104421
-0.000988484
-0.000948277
-0.000874459
-0.000798802
-0.000747474
-0.000700568
-0.000645496
-0.000594923
-0.000555793
-0.000519501
-0.000482426
-0.000449886
-0.000423045
-0.000397385
-0.000372285
-0.000349944
-0.000329809
-0.000309694
-0.000290006
-0.000271407
-0.000253235
-0.000234639
-0.000216166
-0.000197805
-0.00017924
-0.000160197
-0.000141092
-0.000121704
-0.00010202
-8.19237e-05
-6.17072e-05
-4.11195e-05
-2.03141e-05
8.31189e-07
2.20863e-05
4.36887e-05
6.54161e-05
8.74345e-05
0.000109533
0.00013194
0.000154409
0.000177149
0.000199954
0.000223049
0.000246176
0.000269598
0.000293103
0.000316904
0.000340758
0.000364998
0.000389376
0.000414088
0.000438978
0.000464442
0.000490122
0.000516265
0.00054291
0.000570418
0.00059825
0.000626899
0.0006567
0.000687735
0.000719237
0.000752355
0.000787829
0.000824812
0.000862129
0.000902858
0.000948242
0.00101525
0.00107623
0.00112717
0.00117841
0.00125337
0.00132527
0.00137026
0.0014276
0.00150997
0.00151682
0.0014621
0.0015882
0.00118378
3.57856e-05
-0.000483839
-0.000442095
-0.000400232
-0.000371459
-0.00041527
-0.000475483
-0.000371853
-0.000360856
-0.000419771
-0.000372712
-0.000263708
-0.00026104
-0.000473131
-0.000952666
-0.00118179
-0.00110505
-0.00106037
-0.00100905
-0.000921
-0.000854053
-0.00081302
-0.000753194
-0.000684765
-0.000638601
-0.00059961
-0.000551091
-0.000508037
-0.000477599
-0.000447142
-0.000414733
-0.000388523
-0.000366922
-0.000344033
-0.000321828
-0.000302855
-0.000284626
-0.000265432
-0.00024703
-0.000229536
-0.000211598
-0.000193086
-0.00017489
-0.000156546
-0.000137664
-0.000118401
-9.91183e-05
-7.94039e-05
-5.93237e-05
-3.89323e-05
-1.84024e-05
2.54136e-06
2.36993e-05
4.51385e-05
6.6709e-05
8.86255e-05
0.000110671
0.000132969
0.000155365
0.000178081
0.000200879
0.000223904
0.000247043
0.000270533
0.00029405
0.000317822
0.000341845
0.000366238
0.000390591
0.000415431
0.00044077
0.000466356
0.000491992
0.000518775
0.000546174
0.000573488
0.000601681
0.000632103
0.000662488
0.000692839
0.000726574
0.000763006
0.000797436
0.000834401
0.00087899
0.000923275
0.000963803
0.00103681
0.00109408
0.00115656
0.00122052
0.00129234
0.00137415
0.00144375
0.00150745
0.00160685
0.00166554
0.00165394
0.00171771
0.000706971
-0.000306842
-0.000334599
-0.000402706
-0.000412099
-0.000404885
-0.000415021
-0.000410847
-0.000367816
-0.000387607
-0.000355713
-0.00032383
-0.000288698
-0.00029157
-0.000302606
-0.000688107
-0.00110568
-0.00108433
-0.00106122
-0.000985507
-0.000914172
-0.000862468
-0.000805073
-0.000743114
-0.000688239
-0.000638251
-0.000590512
-0.000547055
-0.000507727
-0.000471844
-0.000439881
-0.000411152
-0.00038454
-0.000360346
-0.000338402
-0.000317729
-0.000297894
-0.000279159
-0.00026105
-0.000243107
-0.000225254
-0.000207605
-0.000189779
-0.000171722
-0.000153412
-0.000134921
-0.00011602
-9.68289e-05
-7.72863e-05
-5.7485e-05
-3.72822e-05
-1.68411e-05
3.94143e-06
2.49374e-05
4.62702e-05
6.77766e-05
8.95851e-05
0.000111541
0.000133789
0.000156166
0.000178813
0.000201571
0.000224619
0.00024778
0.000271206
0.000294767
0.000318669
0.000342694
0.000367045
0.000391655
0.000416698
0.000441918
0.000467688
0.000493961
0.000520768
0.000547987
0.000576276
0.000605357
0.000635157
0.000666116
0.000698952
0.00073278
0.000768085
0.000806089
0.000846613
0.000888684
0.000934399
0.000984178
0.00105222
0.00110449
0.00117651
0.00125671
0.00132076
0.00139362
0.0015003
0.00160296
0.00166782
0.00173295
0.00186772
0.00157659
0.000297122
-0.000408946
-0.000288985
-0.000370543
-0.000429976
-0.000419968
-0.000374433
-0.000360259
-0.000409081
-0.000392961
-0.000309371
-0.000309351
-0.000322669
-0.000258704
-0.000218167
-0.000500523
-0.00097922
-0.00110562
-0.0010178
-0.000954445
-0.000929338
-0.000871289
-0.000788497
-0.000734631
-0.000695486
-0.000638184
-0.000581489
-0.000543948
-0.000508922
-0.000468083
-0.000434064
-0.000408664
-0.000382449
-0.000355918
-0.000334229
-0.000315037
-0.000294805
-0.000275387
-0.000257937
-0.000240541
-0.000222435
-0.000204815
-0.000187488
-0.00016962
-0.000151282
-0.000133
-0.000114388
-9.52824e-05
-7.58198e-05
-5.62011e-05
-3.61515e-05
-1.57688e-05
4.9187e-06
2.57982e-05
4.70512e-05
6.8518e-05
9.02536e-05
0.000112147
0.000134361
0.000156722
0.00017932
0.000202058
0.000225117
0.00024828
0.000271676
0.00029528
0.000319243
0.000343263
0.00036763
0.000392402
0.000417526
0.000442716
0.000468672
0.000495278
0.00052207
0.000549334
0.000578258
0.000607733
0.000637262
0.000668844
0.000703093
0.000736821
0.000771785
0.000812338
0.000854868
0.000895126
0.000942228
0.000999078
0.00105707
0.0011234
0.00118619
0.00125505
0.00134254
0.00143256
0.0015161
0.00161104
0.00171163
0.00185077
0.00200878
0.00144275
0.000341366
-0.000373268
-0.000427858
-0.000381429
-0.000359251
-0.000387255
-0.00040698
-0.00039845
-0.000365624
-0.000339101
-0.000357417
-0.000320947
-0.000281225
-0.000248553
-0.000197871
-0.000443689
-0.000843078
-0.00105055
-0.00102401
-0.000983522
-0.000910288
-0.000847368
-0.000803142
-0.000744973
-0.000680377
-0.000632205
-0.000590489
-0.000543074
-0.000500465
-0.000467864
-0.000436569
-0.000404978
-0.000378497
-0.000356
-0.000333423
-0.000311866
-0.000292888
-0.000274762
-0.000256276
-0.000238446
-0.00022128
-0.000203854
-0.000186035
-0.000168338
-0.000150448
-0.000132099
-0.000113376
-9.44916e-05
-7.51916e-05
-5.55165e-05
-3.55009e-05
-1.52577e-05
5.37861e-06
2.62753e-05
4.74729e-05
6.88659e-05
9.05867e-05
0.00011249
0.000134656
0.000156973
0.00017959
0.000202346
0.000225343
0.000248497
0.000271977
0.000295569
0.000319435
0.000343567
0.000368075
0.000392689
0.000417777
0.000443357
0.000469314
0.000495521
0.000522745
0.000550672
0.000578916
0.000608135
0.0006393
0.000670985
0.000703343
0.000738696
0.000776651
0.000814328
0.000855115
0.000902261
0.000950558
0.000998802
0.00105707
0.0011234
0.00118619
0.00125505
0.00134254
0.00143256
0.0015161
0.00161104
0.00171163
0.00185077
0.00200878
0.00144275
0.000341366
-0.000373268
-0.000427858
-0.000381429
-0.000359251
-0.000387255
-0.00040698
-0.00039845
-0.000365624
-0.000339101
-0.000357417
-0.000320947
-0.000281225
-0.000248553
-0.000197871
-0.000443689
-0.000843078
-0.00105055
-0.00102401
-0.000983522
-0.000910288
-0.000847368
-0.000803142
-0.000744973
-0.000680377
-0.000632205
-0.000590489
-0.000543074
-0.000500465
-0.000467864
-0.000436569
-0.000404978
-0.000378497
-0.000356
-0.000333423
-0.000311866
-0.000292888
-0.000274762
-0.000256276
-0.000238446
-0.00022128
-0.000203854
-0.000186035
-0.000168338
-0.000150448
-0.000132099
-0.000113376
-9.44916e-05
-7.51916e-05
-5.55165e-05
-3.55009e-05
-1.52577e-05
5.37861e-06
2.62753e-05
4.74729e-05
6.88659e-05
9.05867e-05
0.00011249
0.000134656
0.000156973
0.00017959
0.000202346
0.000225343
0.000248497
0.000271977
0.000295569
0.000319435
0.000343567
0.000368075
0.000392689
0.000417777
0.000443357
0.000469314
0.000495521
0.000522745
0.000550672
0.000578916
0.000608135
0.0006393
0.000670985
0.000703343
0.000738696
0.000776651
0.000814328
0.000855115
0.000902261
0.000950558
0.000998802
0.00105222
0.00110449
0.00117651
0.00125671
0.00132076
0.00139362
0.0015003
0.00160296
0.00166782
0.00173295
0.00186772
0.00157659
0.000297122
-0.000408946
-0.000288985
-0.000370543
-0.000429976
-0.000419968
-0.000374433
-0.000360259
-0.000409081
-0.000392961
-0.000309371
-0.000309351
-0.000322669
-0.000258704
-0.000218167
-0.000500523
-0.00097922
-0.00110562
-0.0010178
-0.000954445
-0.000929338
-0.000871289
-0.000788497
-0.000734631
-0.000695486
-0.000638184
-0.000581489
-0.000543948
-0.000508922
-0.000468083
-0.000434064
-0.000408664
-0.000382449
-0.000355918
-0.000334229
-0.000315037
-0.000294805
-0.000275387
-0.000257937
-0.000240541
-0.000222435
-0.000204815
-0.000187488
-0.00016962
-0.000151282
-0.000133
-0.000114388
-9.52824e-05
-7.58198e-05
-5.62011e-05
-3.61515e-05
-1.57688e-05
4.9187e-06
2.57982e-05
4.70512e-05
6.8518e-05
9.02536e-05
0.000112147
0.000134361
0.000156722
0.00017932
0.000202058
0.000225117
0.00024828
0.000271676
0.00029528
0.000319243
0.000343263
0.00036763
0.000392402
0.000417526
0.000442716
0.000468672