# vtk DataFile Version 3.0
fluid_state
ASCII
DATASET RECTILINEAR_GRID
DIMENSIONS 100 40 1
X_COORDINATES 100 float
0.5 1.5 2.5 3.5 4.5 5.5 6.5 7.5 8.5 9.5 10.5 11.5 12.5 13.5 14.5 15.5 16.5 17.5 18.5 19.5 20.5 21.5 22.5 23.5 24.5 25.5 26.5 27.5 28.5 29.5 30.5 31.5 32.5 33.5 34.5 35.5 36.5 37.5 38.5 39.5 40.5 41.5 42.5 43.5 44.5 45.5 46.5 47.5 48.5 49.5 50.5 51.5 52.5 53.5 54.5 55.5 56.5 57.5 58.5 59.5 60.5 61.5 62.5 63.5 64.5 65.5 66.5 67.5 68.5 69.5 70.5 71.5 72.5 73.5 74.5 75.5 76.5 77.5 78.5 79.5 80.5 81.5 82.5 83.5 84.5 85.5 86.5 87.5 88.5 89.5 90.5 91.5 92.5 93.5 94.5 95.5 96.5 97.5 98.5 99.5 
Y_COORDINATES 40 float
0.5 1.5 2.5 3.5 4.5 5.5 6.5 7.5 8.5 9.5 10.5 11.5 12.5 13.5 14.5 15.5 16.5 17.5 18.5 19.5 20.5 21.5 22.5 23.5 24.5 25.5 26.5 27.5 28.5 29.5 30.5 31.5 32.5 33.5 34.5 35.5 36.5 37.5 38.5 39.5 
Z_COORDINATES 1 float
0
POINT_DATA 4000
SCALARS density_difference float 1
LOOKUP_TABLE default
-0.000766606
-0.000865971
-0.000963435
-0.00105837
-0.00114646
-0.00123199
-0.00131824
-0.00139733
-0.00147139
-0.0015497
-0.00162325
-0.0016899
-0.00176147
-0.00183018
-0.00189095
-0.00195473
-0.00201398
-0.00206261
-0.00211053
-0.0021505
-0.00217521
-0.00219583
-0.00220449
-0.00219603
-0.00218184
-0.00215425
-0.00210951
-0.00206028
-0.00199998
-0.00192437
-0.00184302
-0.00175571
-0.00165851
-0.00155235
-0.00144186
-0.00132878
-0.00120793
-0.00108092
-0.000954345
-0.000825571
-0.000691271
-0.00055641
-0.000423176
-0.000288448
-0.000152867
-1.96864e-05
0.000111401
0.000241412
0.000368847
0.000492426
0.000612578
0.000729127
0.000841012
0.000947805
0.0010496
0.00114594
0.00123626
0.0013204
0.00139827
0.00146952
0.00153388
0.0015913
0.00164168
0.00168482
0.00172067
0.0017492
0.00177039
0.00178418
0.00179062
0.00178973
0.00178161
0.00176627
0.00174383
0.00171436
0.0016781
0.00163506
0.00158547
0.0015295
0.00146746
0.00139934
0.00132557
0.00124642
0.0011622
0.00107295
0.000979374
0.000881782
0.000780399
0.000675507
0.000568092
0.000458254
0.000346281
0.000232875
0.000118938
4.34976e-06
-0.000110185
-0.000223974
-0.000336537
-0.000447482
-0.000556193
-0.000663046
-0.000764263
-0.000866074
-0.000965441
-0.0010577
-0.00114671
-0.00123852
-0.00132271
-0.0013979
-0.00147954
-0.00156087
-0.00162702
-0.00169662
-0.00177408
-0.00183823
-0.00189609
-0.00196175
-0.00202033
-0.00206576
-0.00211007
-0.00214884
-0.00217165
-0.00218867
-0.00219666
-0.0021843
-0.00216655
-0.0021443
-0.0020967
-0.00204029
-0.00198646
-0.0019147
-0.0018279
-0.00174053
-0.00164833
-0.00154474
-0.00143193
-0.00131835
-0.00120246
-0.00107749
-0.000947978
-0.000820376
-0.000689916
-0.000554732
-0.00041996
-0.000287062
-0.000152949
-1.8925e-05
0.00011243
0.000241263
0.000368516
0.000492574
0.000612577
0.0007286
0.00084066
0.000947591
0.00104924
0.0011454
0.00123592
0.00132005
0.00139789
0.00146911
0.00153366
0.00159105
0.00164153
0.0016847
0.00172074
0.00174926
0.00177064
0.00178448
0.00179112
0.00179027
0.00178237
0.00176706
0.00174484
0.00171544
0.0016794
0.00163637
0.00158704
0.00153114
0.00146926
0.00140116
0.00132771
0.00124856
0.00116445
0.00107529
0.000982056
0.000884329
0.000783053
0.000678352
0.000571158
0.000461053
0.000349265
0.000235997
0.000122069
7.23009e-06
-0.000107275
-0.000221251
-0.000333666
-0.000445037
-0.000554732
-0.000661513
-0.000761993
-0.000863998
-0.000961276
-0.00105599
-0.00114938
-0.00123717
-0.00131911
-0.00140404
-0.00148526
-0.00155649
-0.0016319
-0.00170987
-0.00177356
-0.00183932
-0.00191083
-0.00196748
-0.0020195
-0.00207568
-0.00211623
-0.0021473
-0.00217712
-0.00218791
-0.00218909
-0.00218708
-0.00216219
-0.00212757
-0.00209238
-0.00203779
-0.00197007
-0.0019011
-0.00182339
-0.00173308
-0.00163419
-0.00153459
-0.00142901
-0.0013118
-0.00119175
-0.00107276
-0.000946407
-0.000814626
-0.000684102
-0.000553007
-0.000417932
-0.000283001
-0.000150033
-1.74559e-05
0.000114861
0.000244226
0.000370754
0.000494627
0.000615307
0.000731352
0.000843195
0.000950294
0.00105233
0.00114844
0.00123903
0.00132336
0.00140146
0.00147267
0.00153743
0.00159498
0.00164567
0.00168889
0.00172518
0.00175383
0.00177541
0.00178932
0.00179622
0.00179546
0.00178775
0.00177251
0.00175053
0.00172118
0.00168528
0.00164232
0.00159319
0.00153725
0.0014755
0.00140747
0.00133413
0.00125485
0.00117088
0.0010818
0.000988499
0.000890576
0.000789523
0.000684818
0.000577315
0.000467064
0.000355579
0.000242063
0.00012762
1.27372e-05
-0.000101523
-0.000215983
-0.000329135
-0.000440728
-0.000550005
-0.000657324
-0.000756703
-0.000858148
-0.000955318
-0.00105285
-0.00114599
-0.0012307
-0.00131647
-0.00140504
-0.00148049
-0.00155284
-0.00163609
-0.00171031
-0.00177202
-0.00184474
-0.001916
-0.0019727
-0.00202714
-0.00208309
-0.00212608
-0.00215706
-0.00218442
-0.00219685
-0.00219419
-0.00219017
-0.0021679
-0.00212496
-0.00208685
-0.00203797
-0.00196521
-0.00189159
-0.0018151
-0.00172702
-0.0016282
-0.00152438
-0.00141948
-0.00130762
-0.00118593
-0.00106368
-0.000940599
-0.000811324
-0.000678416
-0.000546903
-0.00041412
-0.000279316
-0.000145035
-1.29318e-05
0.000118601
0.000248482
0.000375533
0.00049907
0.000619762
0.000736288
0.00084836
0.000955396
0.00105772
0.00115417
0.00124494
0.00132938
0.0014078
0.00147925
0.00154421
0.00160194
0.00165293
0.00169634
0.00173285
0.00176168
0.00178351
0.00179758
0.00180469
0.00180407
0.00179656
0.00178144
0.00175962
0.00173033
0.00169461
0.00165171
0.00160265
0.00154672
0.00148512
0.00141705
0.00134367
0.0012644
0.00118053
0.00109123
0.000997849
0.00089999
0.000798872
0.000693772
0.000586276
0.000476075
0.000364223
0.000250298
0.000136005
2.09013e-05
-9.39123e-05
-0.000208568
-0.000321812
-0.000433905
-0.000543321
-0.000651156
-0.00074685
-0.000849518
-0.000949215
-0.00104437
-0.00113451
-0.00122559
-0.00131389
-0.00139219
-0.00147115
-0.001558
-0.00163034
-0.00169645
-0.00178044
-0.00185385
-0.00190808
-0.00198037
-0.00204764
-0.00209049
-0.00213711
-0.00217942
-0.00219614
-0.00221457
-0.00221611
-0.00219167
-0.00217569
-0.00214628
-0.00208511
-0.00202855
-0.00197049
-0.00189451
-0.00180482
-0.00171502
-0.00162584
-0.00152159
-0.00140674
-0.00129732
-0.00118325
-0.00105736
-0.000930098
-0.000805119
-0.000674442
-0.00053994
-0.00040683
-0.00027438
-0.000139872
-6.41382e-06
0.000124668
0.000253869
0.0003816
0.000505658
0.000626128
0.00074273
0.000855392
0.000962683
0.00106507
0.00116183
0.00125305
0.00133769
0.00141635
0.00148814
0.00155344
0.00161138
0.00166265
0.00170636
0.00174314
0.00177217
0.00179428
0.00180856
0.00181589
0.00181542
0.00180815
0.00179316
0.00177149
0.00174231
0.00170675
0.00166386
0.00161489
0.00155902
0.00149747
0.0014293
0.00135598
0.00127671
0.00119272
0.00110324
0.00100993
0.000911963
0.000810551
0.000705262
0.000597893
0.000487375
0.000375078
0.000261089
0.00014691
3.12594e-05
-8.40544e-05
-0.00019867
-0.000311752
-0.000424461
-0.000534735
-0.000642408
-0.000735628
-0.000838078
-0.000937807
-0.00103237
-0.00112333
-0.00121593
-0.00130116
-0.00137924
-0.00146477
-0.00154904
-0.00161744
-0.00169473
-0.00177996
-0.0018483
-0.00191619
-0.00199107
-0.00205583
-0.00211064
-0.00215943
-0.00220268
-0.00222375
-0.00223712
-0.00224191
-0.00221949
-0.00218706
-0.00215948
-0.00210169
-0.00203412
-0.00197014
-0.00189247
-0.00180677
-0.00171245
-0.00161313
-0.0015147
-0.00140502
-0.00128737
-0.00117126
-0.00105186
-0.000924261
-0.000795188
-0.000666077
-0.000534172
-0.000399647
-0.000266108
-0.000132892
1.56177e-07
0.000132265
0.000261607
0.000388899
0.000513309
0.000634415
0.00075107
0.000863846
0.000971642
0.00107445
0.00117139
0.00126295
0.00134805
0.00142704
0.00149909
0.00156478
0.00162308
0.00167465
0.00171864
0.00175576
0.00178507
0.00180744
0.00182195
0.00182954
0.00182928
0.0018222
0.00180735
0.00178587
0.00175681
0.00172134
0.00167852
0.00162967
0.00157379
0.00151221
0.00144405
0.00137078
0.00129132
0.00120724
0.00111777
0.00102436
0.000926008
0.000824566
0.000719307
0.000611528
0.000500567
0.000388494
0.000274348
0.000159414
4.36286e-05
-7.12461e-05
-0.000186489
-0.000300297
-0.000412569
-0.000522644
-0.000631123
-0.000722448
-0.000823934
-0.000921764
-0.00101872
-0.001112
-0.00119802
-0.00128172
-0.00137237
-0.00145397
-0.00152251
-0.00160943
-0.00170249
-0.00176173
-0.00183684
-0.00193989
-0.00200156
-0.00205636
-0.00213938
-0.00219469
-0.00222603
-0.00226599
-0.00226967
-0.00226357
-0.00226903
-0.00221796
-0.00215803
-0.00212461
-0.00206023
-0.00197216
-0.00188543
-0.00180707
-0.00171863
-0.00160657
-0.00150011
-0.00140017
-0.00128416
-0.00115944
-0.00104062
-0.000918193
-0.00078737
-0.000655632
-0.000525686
-0.000392418
-0.000257472
-0.000123903
8.17953e-06
0.000140446
0.000270592
0.000397907
0.000522174
0.000643806
0.000760995
0.000873921
0.000981981
0.00108536
0.00118271
0.00127456
0.00136006
0.00143955
0.00151196
0.00157799
0.00163669
0.00168866
0.00173295
0.0017704
0.00180005
0.00182271
0.00183748
0.00184534
0.0018453
0.00183841
0.00182375
0.00180244
0.00177348
0.00173811
0.00169539
0.00164659
0.00159068
0.00152913
0.00146098
0.0013876
0.00130802
0.00122393
0.00113433
0.00104066
0.000942169
0.000840703
0.000735121
0.000627002
0.000515994
0.000403821
0.000289183
0.000174
5.82778e-05
-5.67876e-05
-0.000172478
-0.000286406
-0.000398569
-0.000508455
-0.000617235
-0.000705465
-0.000808411
-0.000905565
-0.00100047
-0.00109324
-0.00118022
-0.00126536
-0.00135305
-0.00143102
-0.00150891
-0.00159945
-0.00168009
-0.00175431
-0.00184757
-0.00192865
-0.00200597
-0.00209032
-0.00215734
-0.00222077
-0.00226614
-0.00231082
-0.0023256
-0.00230401
-0.0022875
-0.0022653
-0.00219836
-0.00213701
-0.00206522
-0.00198607
-0.00190505
-0.00180083
-0.00170502
-0.00161249
-0.00149952
-0.00138347
-0.0012743
-0.00115665
-0.00103061
-0.000905086
-0.000779289
-0.000648147
-0.000514995
-0.000382287
-0.000249277
-0.000114835
1.8331e-05
0.000149897
0.000279791
0.000408028
0.000532689
0.000654158
0.00077177
0.000885418
0.000993763
0.00109739
0.00119532
0.00128771
0.00137354
0.00145344
0.00152638
0.00159282
0.00165188
0.00170426
0.00174897
0.00178675
0.0018167
0.0018397
0.00185477
0.00186287
0.00186307
0.00185641
0.00184193
0.00182076
0.00179192
0.00175669
0.00171401
0.00166522
0.00160935
0.00154783
0.00147956
0.00140608
0.00132651
0.0012423
0.00115239
0.00105863
0.00096014
0.000858292
0.000752296
0.000644299
0.000533184
0.000420277
0.000305452
0.000190747
7.45053e-05
-4.14714e-05
-0.000156565
-0.000269845
-0.000383204
-0.000493488
-0.000600555
-0.000687399
-0.000789496
-0.000887289
-0.00098047
-0.0010702
-0.00116111
-0.00124714
-0.00132263
-0.00140564
-0.00150322
-0.0015744
-0.00164053
-0.00176004
-0.00185773
-0.00189947
-0.00201035
-0.00212423
-0.00217291
-0.0022465
-0.00232257
-0.00234142
-0.00237778
-0.00238314
-0.00230414
-0.00229286
-0.00226074
-0.00215666
-0.00207135
-0.0019949
-0.00191812
-0.0018118
-0.00169595
-0.00160284
-0.00150055
-0.00137788
-0.00126107
-0.00114747
-0.00102358
-0.000894669
-0.000768161
-0.000638909
-0.000505632
-0.000371874
-0.000239195
-0.000105283
2.83695e-05
0.000160403
0.000290176
0.00041854
0.000543803
0.000665673
0.000783464
0.000897565
0.00100652
0.00111055
0.00120886
0.0013018
0.00138816
0.00146847
0.00154185
0.0016088
0.00166829
0.00172105
0.00176617
0.00180434
0.00183464
0.00185795
0.00187333
0.00188169
0.00188213
0.00187569
0.00186139
0.00184037
0.00181168
0.00177652
0.0017339
0.00168515
0.00162931
0.00156771
0.00149939
0.00142588
0.00134618
0.00126175
0.00117176
0.00107789
0.000979082
0.000876971
0.000770952
0.000662702
0.000551119
0.000438131
0.000323339
0.000208154
9.15988e-05
-2.40687e-05
-0.000139277
-0.000253019
-0.000365975
-0.000475835
-0.000583186
-0.000668671
-0.000767367
-0.000865457
-0.000960766
-0.00104727
-0.00113312
-0.0012199
-0.00130048
-0.00138168
-0.00146569
-0.001544
-0.0016356
-0.00173211
-0.00181768
-0.00192841
-0.00202024
-0.00207606
-0.00219473
-0.00229214
-0.00237005
-0.00238476
-0.00240469
-0.00244041
-0.0024059
-0.00231194
-0.0022536
-0.00218123
-0.00212411
-0.00201546
-0.00189163
-0.00181724
-0.00171877
-0.00159031
-0.00148235
-0.00137904
-0.00125768
-0.0011323
-0.00101277
-0.000888666
-0.000757804
-0.000626652
-0.000496398
-0.000362865
-0.000228075
-9.44868e-05
3.80745e-05
0.000170921
0.000301622
0.000429676
0.000554983
0.000677732
0.000796031
0.000910221
0.00101968
0.00112444
0.00122317
0.00131646
0.00140341
0.00148429
0.00155806
0.00162545
0.00168546
0.00173865
0.00178413
0.00182269
0.00185338
0.001877
0.00189267
0.00190132
0.00190202
0.00189577
0.00188166
0.0018608
0.00183223
0.00179712
0.00175459
0.00170588
0.00165001
0.00158834
0.00152003
0.00144642
0.00136651
0.00128197
0.00119195
0.00109777
0.000998633
0.000896514
0.000790396
0.00068156
0.000569748
0.00045704
0.00034189
0.00022591
0.000109718
-5.35504e-06
-0.000121478
-0.000235727
-0.000347056
-0.000456376
-0.000565362
-0.0006475
-0.000747539
-0.000842532
-0.000934559
-0.00102335
-0.00110665
-0.00118651
-0.00127291
-0.00135262
-0.00141802
-0.00151538
-0.0016269
-0.00167479
-0.00176272
-0.00195437
-0.00202537
-0.00204363
-0.00217306
-0.00227255
-0.00237227
-0.00249622
-0.00250466
-0.00241713
-0.00245988
-0.00235824
-0.00226998
-0.00221915
-0.00212626
-0.00203548
-0.0019111
-0.00180318
-0.00171289
-0.00159692
-0.00147715
-0.00136675
-0.00125011
-0.00112611
-0.00100289
-0.000877906
-0.000748722
-0.000617366
-0.000485827
-0.000352631
-0.000218413
-8.41283e-05
4.89738e-05
0.000181503
0.000312406
0.000441231
0.000566843
0.00068968
0.000808572
0.000923411
0.0010332
0.00113837
0.00123774
0.00133156
0.00141891
0.00150029
0.00157463
0.00164245
0.00170287
0.00175652
0.00180243
0.00184134
0.00187239
0.00189635
0.00191233
0.00192124
0.00192219
0.00191614
0.00190223
0.00188149
0.00185304
0.00181802
0.00177556
0.00172683
0.00167096
0.00160929
0.00154089
0.00146711
0.00138717
0.00130251
0.00121221
0.00111782
0.00101869
0.000916273
0.000809709
0.000700853
0.000589085
0.000475762
0.000360308
0.000244806
0.000128429
1.25083e-05
-0.000103013
-0.000216316
-0.000328551
-0.000437961
-0.000544523
-0.000625785
-0.000726907
-0.000818793
-0.000906101
-0.000996148
-0.00108053
-0.00115199
-0.00123017
-0.0013152
-0.00139211
-0.00146978
-0.00155019
-0.00164922
-0.00175895
-0.00184104
-0.00198568
-0.00214958
-0.00209182
-0.0020006
-0.00203698
-0.00203725
-0.00227977
-0.00243949
-0.00233549
-0.00237725
-0.00236707
-0.00228925
-0.00209024
-0.00200699
-0.00195722
-0.00181177
-0.00168403
-0.00159616
-0.00148408
-0.00135476
-0.00123781
-0.00112237
-0.000995508
-0.000865992
-0.000739776
-0.000609925
-0.000475683
-0.000341902
-0.000209284
-7.46708e-05
5.9851e-05
0.0001923
0.000322813
0.000452382
0.000578786
0.000701683
0.000820842
0.000936428
0.00104677
0.00115222
0.00125211
0.00134656
0.00143437
0.00151615
0.00159102
0.00165934
0.00172017
0.00177421
0.00182057
0.00185985
0.00189123
0.00191551
0.00193181
0.00194096
0.00194215
0.0019363
0.00192258
0.00190195
0.00187364
0.0018387
0.00179628
0.00174753
0.00169171
0.00162997
0.00156147
0.00148759
0.00140761
0.00132273
0.00123221
0.00113773
0.00103847
0.000935649
0.000828886
0.000720073
0.000608039
0.000494179
0.000378845
0.000263617
0.000146709
3.04068e-05
-8.41788e-05
-0.000197012
-0.00031011
-0.000418996
-0.000523129
-0.000605475
-0.000701198
-0.000794817
-0.000884156
-0.000964086
-0.00104281
-0.00112363
-0.00119398
-0.00125877
-0.00134826
-0.00142391
-0.00147748
-0.00160768
-0.00171118
-0.00168388
-0.00176564
-0.00187917
-0.00141994
-0.0012414
-0.00138797
-0.00113792
-0.00144956
-0.0016817
-0.00172126
-0.00222128
-0.00237735
-0.00223067
-0.00215759
-0.00201398
-0.00191269
-0.00181761
-0.00170084
-0.00158534
-0.00146954
-0.00135277
-0.00123458
-0.00111177
-0.000986635
-0.000860284
-0.000731309
-0.000599858
-0.000467654
-0.00033383
-0.000199252
-6.48542e-05
6.88572e-05
0.000202307
0.000333762
0.000463026
0.000589625
0.000713481
0.000833087
0.000948758
0.00105969
0.00116584
0.00126607
0.00136089
0.00144932
0.0015316
0.00160684
0.00167559
0.00173691
0.00179134
0.00183805
0.0018777
0.00190945
0.001934
0.00195059
0.00195999
0.00196142
0.00195574
0.00194219
0.0019217
0.00189351
0.0018586
0.00181624
0.00176753
0.00171168
0.00164983
0.00158133
0.00150738
0.00142719
0.00134214
0.00125164
0.00115691
0.00105727
0.000954411
0.000847714
0.000738325
0.00062595
0.000512526
0.000397077
0.000280875
0.000164374
4.91711e-05
-6.63201e-05
-0.000179903
-0.000290571
-0.00039842
-0.000504793
-0.000584983
-0.00067819
-0.000770338
-0.000858627
-0.000934253
-0.00100734
-0.00108685
-0.00115366
-0.00120627
-0.00128235
-0.00136724
-0.0014417
-0.00149121
-0.00155566
-0.00149328
-0.00127419
-0.00112701
-0.000886679
-0.000788294
-0.000807183
-0.000818926
-0.0009177
-0.000875766
-0.00103255
-0.00155165
-0.00198796
-0.00211746
-0.00218074
-0.00205523
-0.00188037
-0.00180655
-0.00170901
-0.00157508
-0.00145946
-0.00135227
-0.00122924
-0.00110153
-0.000980196
-0.000855541
-0.000723516
-0.000591028
-0.000460321
-0.000326549
-0.00019057
-5.57738e-05
7.75576e-05
0.000211345
0.000343646
0.000473233
0.000599935
0.000724292
0.000844536
0.000960548
0.00107182
0.00117851
0.00127927
0.00137445
0.00146332
0.00154608
0.00162175
0.00169087
0.00175262
0.00180743
0.00185449
0.00189446
0.00192655
0.00195138
0.00196823
0.00197786
0.00197951
0.00197399
0.00196061
0.00194023
0.00191214
0.00187727
0.00183499
0.00178626
0.00173039
0.0016685
0.00159997
0.00152587
0.00144558
0.00136042
0.00126979
0.0011748
0.00107505
0.000972077
0.000865137
0.000755465
0.000643108
0.000529603
0.000413844
0.000297551
0.000181395
6.62163e-05
-4.94566e-05
-0.000162601
-0.000272284
-0.000379674
-0.000485761
-0.000564398
-0.000661014
-0.000746821
-0.000826992
-0.000908799
-0.00098123
-0.00103717
-0.00110176
-0.00117842
-0.0012177
-0.00125093
-0.00137107
-0.0014437
-0.00133966
-0.0010869
-0.000871079
-0.000828055
-0.000900765
-0.000880396
-0.000806144
-0.000855996
-0.000791842
-0.000783216
-0.000791769
-0.000938182
-0.00131047
-0.00186771
-0.00205517
-0.00200656
-0.00192495
-0.00180555
-0.00168046
-0.00157072
-0.00146355
-0.0013424
-0.00121968
-0.00110053
-0.000975756
-0.000845908
-0.000717596
-0.000587236
-0.000452721
-0.000317977
-0.000184341
-4.89609e-05
8.64931e-05
0.000219968
0.000351626
0.000482321
0.000609908
0.000734037
0.000854548
0.000971423
0.00108309
0.00118989
0.00129118
0.00138693
0.0014761
0.00155918
0.00163534
0.00170485
0.00176689
0.00182204
0.00186948
0.00190973
0.00194208
0.00196718
0.00198429
0.00199411
0.00199595
0.0019906
0.00197737
0.00195707
0.00192908
0.00189428
0.00185203
0.00180326
0.00174743
0.00168551
0.00161687
0.00154264
0.00146238
0.00137706
0.00128615
0.00119109
0.0010914
0.000988019
0.000880745
0.000771339
0.000658965
0.000544641
0.000428987
0.000313595
0.000196839
8.06407e-05
-3.33534e-05
-0.000145161
-0.00025687
-0.000363926
-0.000465191
-0.000546946
-0.000640863
-0.00072604
-0.00080378
-0.00087917
-0.000948859
-0.00100373
-0.00105657
-0.00111587
-0.00115305
-0.0011865
-0.00123375
-0.00122513
-0.00108736
-0.000917869
-0.000849258
-0.000840337
-0.000856977
-0.000854846
-0.000835311
-0.000858766
-0.000800979
-0.00075731
-0.000751209
-0.00077184
-0.000826392
-0.00130939
-0.00186992
-0.00201601
-0.00191585
-0.00176799
-0.00167129
-0.00157976
-0.00145679
-0.00133041
-0.00121701
-0.00109864
-0.000969867
-0.000840431
-0.000713073
-0.00058202
-0.000447205
-0.000312222
-0.000177959
-4.24798e-05
9.30777e-05
0.000227235
0.000359359
0.000490092
0.000618072
0.0007428
0.000863599
0.000980693
0.00109284
0.00120008
0.00130164
0.00139773
0.00148733
0.00157074
0.0016472
0.00171705
0.00177943
0.00183486
0.00188258
0.0019231
0.00195571
0.00198102
0.00199835
0.00200834
0.00201037
0.00200514
0.00199204
0.00197182
0.00194392
0.00190915
0.00186694
0.00181817
0.00176234
0.00170034
0.00163168
0.00155739
0.00147701
0.00139154
0.00130061
0.00120541
0.00110549
0.00100199
0.000894753
0.000785071
0.000672444
0.000558276
0.000442695
0.000326861
0.000210223
9.46849e-05
-1.93879e-05
-0.00013142
-0.000241904
-0.000347954
-0.000449303
-0.000533065
-0.000620141
-0.000707249
-0.000788899
-0.000852663
-0.000911934
-0.000977032
-0.00102383
-0.001044
-0.00108857
-0.00114898
-0.00109109
-0.00092174
-0.000875766
-0.000887443
-0.000849914
-0.00084074
-0.000835784
-0.000857284
-0.000850971
-0.000792719
-0.000804781
-0.000815642
-0.000763624
-0.000674996
-0.00066295
-0.000935388
-0.00162259
-0.00196439
-0.00186474
-0.00177217
-0.00167862
-0.00156056
-0.00144393
-0.00133601
-0.001217
-0.00108789
-0.000964967
-0.000841703
-0.000709031
-0.000574668
-0.000443655
-0.000309532
-0.000172028
-3.61968e-05
9.77598e-05
0.000232681
0.000366263
0.000496727
0.000624456
0.00075003
0.000871378
0.000988376
0.00110081
0.00120862
0.00131044
0.00140667
0.00149665
0.00158042
0.0016571
0.00172717
0.00178989
0.00184555
0.00189348
0.00193422
0.00196707
0.00199254
0.00201004
0.00202019
0.00202237
0.00201723
0.00200424
0.00198411
0.00195628
0.00192152
0.00187936
0.00183061
0.00177474
0.00171267
0.00164404
0.00156968
0.00148915
0.00140359
0.00131271
0.00121729
0.00111712
0.00101371
0.000906513
0.000796326
0.000683605
0.000569949
0.00045412
0.000337474
0.000221601
0.000107089
-8.19712e-06
-0.000120707
-0.000228202
-0.000333445
-0.000437784
-0.000520205
-0.000609925
-0.000692052
-0.000767901
-0.000835539
-0.00089237
-0.000941896
-0.000986204
-0.0010142
-0.00103577
-0.00104009
-0.00100942
-0.000923585
-0.000862919
-0.000825783
-0.000831038
-0.000864243
-0.000846447
-0.000838173
-0.000840379
-0.000812873
-0.000800554
-0.000774648
-0.000751593
-0.000692455
-0.000684438
-0.000702271
-0.00127116
-0.00187785
-0.0018376
-0.00178647
-0.0016695
-0.00154718
-0.0014456
-0.00133373
-0.00120976
-0.00108725
-0.000964401
-0.00083641
-0.000705777
-0.000573793
-0.000439974
-0.00030472
-0.000169097
-3.29291e-05
0.000102748
0.000237418
0.000370445
0.000501764
0.000630121
0.000755436
0.000876953
0.000994556
0.00110719
0.00121502
0.00131718
0.00141375
0.00150386
0.00158781
0.00166478
0.00173506
0.00179793
0.0018538
0.00190195
0.00194283
0.00197583
0.00200146
0.00201911
0.00202935
0.00203164
0.0020266
0.0020137
0.0019936
0.00196583
0.00193111
0.00188897
0.00184018
0.00178434
0.00172227
0.00165356
0.00157911
0.00149861
0.00141299
0.00132191
0.00122644
0.00112638
0.00102271
0.000915251
0.000805308
0.000692665
0.000578391
0.000462623
0.000346775
0.000230495
0.000115119
1.17718e-06
-0.000110183
-0.000219358
-0.000324396
-0.000424861
-0.00051112
-0.000603665
-0.000682083
-0.000751089
-0.000821831
-0.000883164
-0.000920112
-0.000949281
-0.000983352
-0.00100125
-0.000974889
-0.000935673
-0.000928508
-0.000866555
-0.000795333
-0.000839696
-0.000871416
-0.000850399
-0.000820084
-0.000822373
-0.00083662
-0.000802791
-0.000749737
-0.000738957
-0.000724668
-0.000670091
-0.000621806
-0.00101738
-0.00169659
-0.0018607
-0.00175318
-0.00165248
-0.00156045
-0.00144877
-0.00132169
-0.00120487
-0.00109164
-0.00096373
-0.000830769
-0.00070389
-0.000574248
-0.000437442
-0.000301038
-0.000167192
-3.102e-05
0.000106119
0.000240786
0.000373255
0.000505064
0.000633996
0.000759186
0.000880714
0.000998721
0.00111157
0.00121939
0.00132174
0.00141856
0.00150879
0.00159284
0.00167001
0.00174045
0.00180343
0.00185941
0.00190771
0.0019487
0.0019818
0.00200753
0.00202528
0.0020356
0.00203796
0.00203298
0.00202014
0.00200007
0.00197234
0.00193764
0.00189551
0.0018467
0.00179088
0.0017288
0.00166004
0.00158555
0.00150507
0.00141937
0.00132817
0.00123271
0.00113268
0.00102881
0.00092124
0.000811464
0.000698781
0.000584124
0.000468517
0.000353124
0.000236444
0.000120632
7.74859e-06
-0.000103012
-0.000213503
-0.000318178
-0.000415579
-0.00050823
-0.000593885
-0.000676542
-0.000752352
-0.000812655
-0.000864457
-0.000913334
-0.00094855
-0.000963609
-0.00095352
-0.000927835
-0.000897043
-0.000829445
-0.000804952
-0.000863569
-0.000855112
-0.000820406
-0.000843782
-0.000852961
-0.000829274
-0.0008038
-0.000790233
-0.000781261
-0.000735891
-0.000707355
-0.000654104
-0.000584733
-0.000956874
-0.00156066
-0.0018605
-0.00176031
-0.00166062
-0.00155112
-0.00143639
-0.00132848
-0.00121058
-0.00108349
-0.00095983
-0.00083564
-0.000703599
-0.000569334
-0.000437038
-0.000302308
-0.000164888
-2.84386e-05
0.000106504
0.000241803
0.000375697
0.000506873
0.000635259
0.000761194
0.000883031
0.00100064
0.00111358
0.0012218
0.00132413
0.00142086
0.00151128
0.00159548
0.00167263
0.00174312
0.00180624
0.00186228
0.0019106
0.00195167
0.00198485
0.0020106
0.00202839
0.00203876
0.00204118
0.00203621
0.00202339
0.00200336
0.00197565
0.00194093
0.00189882
0.00185005
0.00179419
0.00173205
0.00166335
0.00158887
0.00150826
0.00142255
0.00133149
0.0012359
0.00113564
0.00103197
0.000924585
0.000814325
0.000701531
0.000587587
0.000471781
0.000355374
0.000239493
0.000124909
1.03874e-05
-0.000101303
-0.000208582
-0.00031284
-0.000414685
-0.00050823
-0.000593885
-0.000676542
-0.000752352
-0.000812655
-0.000864457
-0.000913334
-0.00094855
-0.000963609
-0.00095352
-0.000927835
-0.000897043
-0.000829445
-0.000804952
-0.000863569
-0.000855112
-0.000820406
-0.000843782
-0.000852961
-0.000829274
-0.0008038
-0.000790233
-0.000781261
-0.000735891
-0.000707355
-0.000654104
-0.000584733
-0.000956874
-0.00156066
-0.0018605
-0.00176031
-0.00166062
-0.00155112
-0.00143639
-0.00132848
-0.00121058
-0.00108349
-0.00095983
-0.00083564
-0.000703599
-0.000569334
-0.000437038
-0.000302308
-0.000164888
-2.84386e-05
0.000106504
0.000241803
0.000375697
0.000506873
0.000635259
0.000761194
0.000883031
0.00100064
0.00111358
0.0012218
0.00132413
0.00142086
0.00151128
0.00159548
0.00167263
0.00174312
0.00180624
0.00186228
0.0019106
0.00195167
0.00198485
0.0020106
0.00202839
0.00203876
0.00204118
0.00203621
0.00202339
0.00200336
0.00197565
0.00194093
0.00189882
0.00185005
0.00179419
0.00173205
0.00166335
0.00158887
0.00150826
0.00142255
0.00133149
0.0012359
0.00113564
0.00103197
0.000924585
0.000814325
0.000701531
0.000587587
0.000471781
0.000355374
0.000239493
0.000124909
1.03874e-05
-0.000101303
-0.000208582
-0.00031284
-0.000414685
-0.00051112
-0.000603665
-0.000682083
-0.000751089
-0.000821831
-0.000883164
-0.000920112
-0.000949281
-0.000983352
-0.00100125
-0.000974889
-0.000935673
-0.000928508
-0.000866555
-0.000795333
-0.000839696
-0.000871416
-0.000850399
-0.000820084
-0.000822373
-0.00083662
-0.000802791
-0.000749737
-0.000738957
-0.000724668
-0.000670091
-0.000621806
-0.00101738
-0.00169659
-0.0018607
-0.00175318
-0.00165248
-0.00156045
-0.00144877
-0.00132169
-0.00120487
-0.00109164
-0.00096373
-0.000830769
-0.00070389
-0.000574248
-0.000437442
-0.000301038
-0.000167192
-3.102e-05
0.000106119
0.000240786
0.000373255
0.000505064
0.000633996
0.000759186
0.000880714
0.000998721
0.00111157
0.00121939
0.00132174
0.00141856
0.00150879
0.00159284
0.00167001
0.00174045
0.00180343
0.00185941
0.00190771
0.0019487
0.0019818
0.00200753
0.00202528
0.0020356
0.00203796
0.00203298
0.00202014
0.00200007
0.00197234
0.00193764
0.00189551
0.0018467
0.00179088
0.0017288
0.00166004
0.00158555
0.00150507
0.00141937
0.00132817
0.00123271
0.00113268
0.00102881
0.00092124
0.000811464
0.000698781
0.000584124
0.000468517
0.000353124
0.000236444
0.000120632
7.74859e-06
-0.000103012
-0.000213503
-0.000318178
-0.000415579
-0.000520205
-0.000609925
-0.000692052
-0.000767901
-0.000835539
-0.00089237
-0.000941896
-0.000986204
-0.0010142
-0.00103577
-0.00104009
-0.00100942
-0.000923585
-0.000862919
-0.000825783
-0.000831038
-0.000864243
-0.000846447
-0.000838173
-0.000840379
-0.000812873
-0.000800554
-0.000774648
-0.000751593
-0.000692455
-0.000684438
-0.000702271
-0.00127116
-0.00187785
-0.0018376
-0.00178647
-0.0016695
-0.00154718
-0.0014456
-0.00133373
-0.00120976
-0.00108725
-0.000964401
-0.00083641
-0.000705777
-0.000573793
-0.000439974
-0.00030472
-0.000169097
-3.29291e-05
0.000102748
0.000237418
0.000370445
0.000501764
0.000630121
0.000755436
0.000876953
0.000994556
0.00110719
0.00121502
0.00131718
0.00141375
0.00150386
0.00158781
0.00166478
0.00173506
0.00179793
0.0018538
0.00190195
0.00194283
0.00197583
0.00200146